 Entering Gaussian System, Link 0=g16
 Initial command:
 /apps/system/easybuild/software/Gaussian/16.C.01/g16/l1.exe "/home/orie4521/For_James_M/Gau-870567.inp" -scrdir="/home/orie4521/For_James_M/"
 Entering Link 1 = /apps/system/easybuild/software/Gaussian/16.C.01/g16/l1.exe PID=    870568.
  
 Copyright (c) 1988-2019, Gaussian, Inc.  All Rights Reserved.
  
 This is part of the Gaussian(R) 16 program.  It is based on
 the Gaussian(R) 09 system (copyright 2009, Gaussian, Inc.),
 the Gaussian(R) 03 system (copyright 2003, Gaussian, Inc.),
 the Gaussian(R) 98 system (copyright 1998, Gaussian, Inc.),
 the Gaussian(R) 94 system (copyright 1995, Gaussian, Inc.),
 the Gaussian 92(TM) system (copyright 1992, Gaussian, Inc.),
 the Gaussian 90(TM) system (copyright 1990, Gaussian, Inc.),
 the Gaussian 88(TM) system (copyright 1988, Gaussian, Inc.),
 the Gaussian 86(TM) system (copyright 1986, Carnegie Mellon
 University), and the Gaussian 82(TM) system (copyright 1983,
 Carnegie Mellon University). Gaussian is a federally registered
 trademark of Gaussian, Inc.
  
 This software contains proprietary and confidential information,
 including trade secrets, belonging to Gaussian, Inc.
  
 This software is provided under written license and may be
 used, copied, transmitted, or stored only in accord with that
 written license.
  
 The following legend is applicable only to US Government
 contracts under FAR:
  
                    RESTRICTED RIGHTS LEGEND
  
 Use, reproduction and disclosure by the US Government is
 subject to restrictions as set forth in subparagraphs (a)
 and (c) of the Commercial Computer Software - Restricted
 Rights clause in FAR 52.227-19.
  
 Gaussian, Inc.
 340 Quinnipiac St., Bldg. 40, Wallingford CT 06492
  
  
 ---------------------------------------------------------------
 Warning -- This program may not be used in any manner that
 competes with the business of Gaussian, Inc. or will provide
 assistance to any competitor of Gaussian, Inc.  The licensee
 of this program is prohibited from giving any competitor of
 Gaussian, Inc. access to this program.  By using this program,
 the user acknowledges that Gaussian, Inc. is engaged in the
 business of creating and licensing software in the field of
 computational chemistry and represents and warrants to the
 licensee that it is not a competitor of Gaussian, Inc. and that
 it will not use this program in any manner prohibited above.
 ---------------------------------------------------------------
  

 Cite this work as:
 Gaussian 16, Revision C.01,
 M. J. Frisch, G. W. Trucks, H. B. Schlegel, G. E. Scuseria, 
 M. A. Robb, J. R. Cheeseman, G. Scalmani, V. Barone, 
 G. A. Petersson, H. Nakatsuji, X. Li, M. Caricato, A. V. Marenich, 
 J. Bloino, B. G. Janesko, R. Gomperts, B. Mennucci, H. P. Hratchian, 
 J. V. Ortiz, A. F. Izmaylov, J. L. Sonnenberg, D. Williams-Young, 
 F. Ding, F. Lipparini, F. Egidi, J. Goings, B. Peng, A. Petrone, 
 T. Henderson, D. Ranasinghe, V. G. Zakrzewski, J. Gao, N. Rega, 
 G. Zheng, W. Liang, M. Hada, M. Ehara, K. Toyota, R. Fukuda, 
 J. Hasegawa, M. Ishida, T. Nakajima, Y. Honda, O. Kitao, H. Nakai, 
 T. Vreven, K. Throssell, J. A. Montgomery, Jr., J. E. Peralta, 
 F. Ogliaro, M. J. Bearpark, J. J. Heyd, E. N. Brothers, K. N. Kudin, 
 V. N. Staroverov, T. A. Keith, R. Kobayashi, J. Normand, 
 K. Raghavachari, A. P. Rendell, J. C. Burant, S. S. Iyengar, 
 J. Tomasi, M. Cossi, J. M. Millam, M. Klene, C. Adamo, R. Cammi, 
 J. W. Ochterski, R. L. Martin, K. Morokuma, O. Farkas, 
 J. B. Foresman, and D. J. Fox, Gaussian, Inc., Wallingford CT, 2019.
 
 ******************************************
 Gaussian 16:  ES64L-G16RevC.01  3-Jul-2019
                 7-Oct-2022 
 ******************************************
 %nproc = 16
 Will use up to   16 processors via shared memory.
 ----------------------------------------
 # p opt Freq b3lyp/sdd geom=connectivity
 ----------------------------------------
 1/18=20,19=15,26=3,38=1,57=2/1,3;
 2/9=110,12=2,17=6,18=5,40=1/2;
 3/5=17,6=7,11=2,25=1,30=1,71=1,74=-5/1,2,3;
 4//1;
 5/5=2,38=5/2;
 6/7=2,8=2,9=2,10=2,28=1/1;
 7//1,2,3,16;
 1/18=20,19=15,26=3/3(2);
 2/9=110/2;
 99//99;
 2/9=110/2;
 3/5=17,6=7,11=2,25=1,30=1,71=1,74=-5/1,2,3;
 4/5=5,16=3,69=1/1;
 5/5=2,38=5/2;
 7//1,2,3,16;
 1/18=20,19=15,26=3/3(-5);
 2/9=110/2;
 6/7=2,8=2,9=2,10=2,19=2,28=1/1;
 99/9=1/99;
 -----
 Title
 -----
 Symbolic Z-matrix:
 Charge =  0 Multiplicity = 1
 C                    -3.91304   0.2795    0. 
 H                    -3.37988  -0.6482    0. 
 H                    -4.98304   0.2795    0. 
 C                    -3.23777   1.45448   0. 
 H                    -3.77093   2.38219   0. 
 H                    -2.16777   1.45448   0. 
 

 GradGradGradGradGradGradGradGradGradGradGradGradGradGradGradGradGradGrad
 Berny optimization.
 Initialization pass.
                           ----------------------------
                           !    Initial Parameters    !
                           ! (Angstroms and Degrees)  !
 --------------------------                            --------------------------
 ! Name  Definition              Value          Derivative Info.                !
 --------------------------------------------------------------------------------
 ! R1    R(1,2)                  1.07           estimate D2E/DX2                !
 ! R2    R(1,3)                  1.07           estimate D2E/DX2                !
 ! R3    R(1,4)                  1.3552         estimate D2E/DX2                !
 ! R4    R(4,5)                  1.07           estimate D2E/DX2                !
 ! R5    R(4,6)                  1.07           estimate D2E/DX2                !
 ! A1    A(2,1,3)              119.8865         estimate D2E/DX2                !
 ! A2    A(2,1,4)              120.2269         estimate D2E/DX2                !
 ! A3    A(3,1,4)              119.8865         estimate D2E/DX2                !
 ! A4    A(1,4,5)              120.2269         estimate D2E/DX2                !
 ! A5    A(1,4,6)              119.8865         estimate D2E/DX2                !
 ! A6    A(5,4,6)              119.8865         estimate D2E/DX2                !
 ! D1    D(2,1,4,5)            180.0            estimate D2E/DX2                !
 ! D2    D(2,1,4,6)              0.0            estimate D2E/DX2                !
 ! D3    D(3,1,4,5)              0.0            estimate D2E/DX2                !
 ! D4    D(3,1,4,6)            180.0            estimate D2E/DX2                !
 --------------------------------------------------------------------------------
 Trust Radius=3.00D-01 FncErr=1.00D-07 GrdErr=1.00D-06 EigMax=2.50D+02 EigMin=1.00D-04
 Number of steps in this run=     25 maximum allowed number of steps=    100.
 GradGradGradGradGradGradGradGradGradGradGradGradGradGradGradGradGradGrad

                          Input orientation:                          
 ---------------------------------------------------------------------
 Center     Atomic      Atomic             Coordinates (Angstroms)
 Number     Number       Type             X           Y           Z
 ---------------------------------------------------------------------
      1          6           0       -3.913044    0.279503    0.000000
      2          1           0       -3.379880   -0.648202    0.000000
      3          1           0       -4.983044    0.279503    0.000000
      4          6           0       -3.237769    1.454480    0.000000
      5          1           0       -3.770933    2.382185    0.000000
      6          1           0       -2.167769    1.454480    0.000000
 ---------------------------------------------------------------------
                    Distance matrix (angstroms):
                    1          2          3          4          5
     1  C    0.000000
     2  H    1.070000   0.000000
     3  H    1.070000   1.852234   0.000000
     4  C    1.355200   2.107479   2.103938   0.000000
     5  H    2.107479   3.055514   2.427032   1.070000   0.000000
     6  H    2.103938   2.427032   3.050630   1.070000   1.852234
                    6
     6  H    0.000000
 Stoichiometry    C2H4
 Framework group  C2H[SGH(C2H4)]
 Deg. of freedom     5
 Full point group                 C2H     NOp   4
 Largest Abelian subgroup         C2H     NOp   4
 Largest concise Abelian subgroup C2      NOp   2
                         Standard orientation:                         
 ---------------------------------------------------------------------
 Center     Atomic      Atomic             Coordinates (Angstroms)
 Number     Number       Type             X           Y           Z
 ---------------------------------------------------------------------
      1          6           0       -0.000000   -0.677600   -0.000000
      2          1           0       -0.924521   -1.216266   -0.000000
      3          1           0        0.927705   -1.210764   -0.000000
      4          6           0        0.000000    0.677600   -0.000000
      5          1           0        0.924521    1.216266   -0.000000
      6          1           0       -0.927705    1.210764   -0.000000
 ---------------------------------------------------------------------
 Rotational constants (GHZ):         146.1648702          29.8053187          24.7569805
 Standard basis: SDD (6D, 10F)
 There are    12 symmetry adapted cartesian basis functions of AG  symmetry.
 There are     2 symmetry adapted cartesian basis functions of BG  symmetry.
 There are     2 symmetry adapted cartesian basis functions of AU  symmetry.
 There are    12 symmetry adapted cartesian basis functions of BU  symmetry.
 There are    12 symmetry adapted basis functions of AG  symmetry.
 There are     2 symmetry adapted basis functions of BG  symmetry.
 There are     2 symmetry adapted basis functions of AU  symmetry.
 There are    12 symmetry adapted basis functions of BU  symmetry.
    28 basis functions,    64 primitive gaussians,    28 cartesian basis functions
     8 alpha electrons        8 beta electrons
       nuclear repulsion energy        33.3121055207 Hartrees.
 NAtoms=    6 NActive=    6 NUniq=    3 SFac= 4.00D+00 NAtFMM=   60 NAOKFM=F Big=F
 Integral buffers will be    131072 words long.
 Raffenetti 2 integral format.
 Two-electron integral symmetry is turned on.
 One-electron integrals computed using PRISM.
   4 Symmetry operations used in ECPInt.
 ECPInt:  NShTT=     210 NPrTT=    1044 LenC2=     211 LenP2D=     953.
 LDataN:  DoStor=T MaxTD1= 2 Len=   12
 NBasis=    28 RedAO= T EigKep=  4.18D-03  NBF=    12     2     2    12
 NBsUse=    28 1.00D-06 EigRej= -1.00D+00 NBFU=    12     2     2    12
 ExpMin= 1.15D-01 ExpMax= 4.23D+03 ExpMxC= 6.35D+02 IAcc=3 IRadAn=         5 AccDes= 0.00D+00
 Harris functional with IExCor=  402 and IRadAn=       5 diagonalized for initial guess.
 HarFok:  IExCor=  402 AccDes= 0.00D+00 IRadAn=         5 IDoV= 1 UseB2=F ITyADJ=14
 ICtDFT=  3500011 ScaDFX=  1.000000  1.000000  1.000000  1.000000
 FoFCou: FMM=F IPFlag=           0 FMFlag=      100000 FMFlg1=           0
         NFxFlg=           0 DoJE=T BraDBF=F KetDBF=T FulRan=T
         wScrn=  0.000000 ICntrl=       500 IOpCl=  0 I1Cent=   200000004 NGrid=           0
         NMat0=    1 NMatS0=      1 NMatT0=    0 NMatD0=    1 NMtDS0=    0 NMtDT0=    0
 Petite list used in FoFCou.
 Initial guess orbital symmetries:
       Occupied  (AG) (BU) (AG) (BU) (BU) (AG) (AG) (AU)
       Virtual   (BG) (AG) (BU) (BU) (BU) (AG) (AG) (BU) (AU) (BG)
                 (BU) (AG) (AG) (BU) (AG) (BU) (BU) (AG) (AG) (BU)
 The electronic state of the initial guess is 1-AG.
 Keep R1 ints in memory in symmetry-blocked form, NReq=13902949.
 Requested convergence on RMS density matrix=1.00D-08 within 128 cycles.
 Requested convergence on MAX density matrix=1.00D-06.
 Requested convergence on             energy=1.00D-06.
 No special actions if energy rises.
 Integral accuracy reduced to 1.0D-05 until final iterations.
 Initial convergence to 1.0D-05 achieved.  Increase integral accuracy.
 SCF Done:  E(RB3LYP) =  -78.5768429921     A.U. after    9 cycles
            NFock=  9  Conv=0.77D-09     -V/T= 2.0059

 **********************************************************************

            Population analysis using the SCF Density.

 **********************************************************************

 Orbital symmetries:
       Occupied  (AG) (BU) (AG) (BU) (BU) (AG) (AG) (AU)
       Virtual   (BG) (BU) (AG) (BU) (BU) (AG) (BU) (AG) (AU) (BG)
                 (AG) (AG) (BU) (BU) (AG) (BU) (BU) (AG) (AG) (BU)
 The electronic state is 1-AG.
 Alpha  occ. eigenvalues --  -10.18885 -10.18813  -0.76237  -0.58421  -0.47824
 Alpha  occ. eigenvalues --   -0.41525  -0.36570  -0.27122
 Alpha virt. eigenvalues --   -0.00145   0.13864   0.14729   0.21740   0.25439
 Alpha virt. eigenvalues --    0.26590   0.28822   0.30825   0.31771   0.40244
 Alpha virt. eigenvalues --    0.52981   0.55049   0.60780   0.89904   1.02708
 Alpha virt. eigenvalues --    1.14532   1.17223   1.43447  22.61656  22.90541
          Condensed to atoms (all electrons):
               1          2          3          4          5          6
     1  C    5.116481   0.395970   0.396213   0.587039  -0.036320  -0.036732
     2  H    0.395970   0.443753  -0.014643  -0.036320   0.001760  -0.002275
     3  H    0.396213  -0.014643   0.444738  -0.036732  -0.002275   0.001803
     4  C    0.587039  -0.036320  -0.036732   5.116481   0.395970   0.396213
     5  H   -0.036320   0.001760  -0.002275   0.395970   0.443753  -0.014643
     6  H   -0.036732  -0.002275   0.001803   0.396213  -0.014643   0.444738
 Mulliken charges:
               1
     1  C   -0.422651
     2  H    0.211755
     3  H    0.210896
     4  C   -0.422651
     5  H    0.211755
     6  H    0.210896
 Sum of Mulliken charges =   0.00000
 Mulliken charges with hydrogens summed into heavy atoms:
               1
     1  C    0.000000
     4  C    0.000000
 Electronic spatial extent (au):  <R**2>=             82.2248
 Charge=             -0.0000 electrons
 Dipole moment (field-independent basis, Debye):
    X=              0.0000    Y=             -0.0000    Z=             -0.0000  Tot=              0.0000
 Quadrupole moment (field-independent basis, Debye-Ang):
   XX=            -11.7139   YY=            -11.9778   ZZ=            -15.6673
   XY=              0.0121   XZ=              0.0000   YZ=              0.0000
 Traceless Quadrupole moment (field-independent basis, Debye-Ang):
   XX=              1.4058   YY=              1.1419   ZZ=             -2.5476
   XY=              0.0121   XZ=              0.0000   YZ=              0.0000
 Octapole moment (field-independent basis, Debye-Ang**2):
  XXX=              0.0000  YYY=             -0.0000  ZZZ=              0.0000  XYY=              0.0000
  XXY=              0.0000  XXZ=              0.0000  XZZ=             -0.0000  YZZ=             -0.0000
  YYZ=              0.0000  XYZ=              0.0000
 Hexadecapole moment (field-independent basis, Debye-Ang**3):
 XXXX=            -24.3510 YYYY=            -65.4676 ZZZZ=            -18.4648 XXXY=             -0.0018
 XXXZ=              0.0000 YYYX=              0.0582 YYYZ=             -0.0000 ZZZX=              0.0000
 ZZZY=             -0.0000 XXYY=            -11.9890 XXZZ=             -7.8490 YYZZ=            -15.1121
 XXYZ=             -0.0000 YYXZ=              0.0000 ZZXY=              0.0006
 N-N= 3.331210552072D+01 E-N=-2.482239116377D+02  KE= 7.811595766071D+01
 Symmetry AG   KE= 3.963984646683D+01
 Symmetry BG   KE= 3.812256555878D-34
 Symmetry AU   KE= 2.045296718012D+00
 Symmetry BU   KE= 3.643081447586D+01
   4 Symmetry operations used in ECPInt.
 ECPInt:  NShTT=     210 NPrTT=    1044 LenC2=     211 LenP2D=     953.
 LDataN:  DoStor=T MaxTD1= 3 Len=   28
 Calling FoFJK, ICntrl=      2127 FMM=F ISym2X=1 I1Cent= 0 IOpClX= 0 NMat=1 NMatS=1 NMatT=0.
 ***** Axes restored to original set *****
 -------------------------------------------------------------------
 Center     Atomic                   Forces (Hartrees/Bohr)
 Number     Number              X              Y              Z
 -------------------------------------------------------------------
      1        6           0.011145040    0.020918551   -0.000000000
      2        1           0.002670406   -0.013030820    0.000000000
      3        1          -0.012781136   -0.004635963    0.000000000
      4        6          -0.011145040   -0.020918551    0.000000000
      5        1          -0.002670406    0.013030820   -0.000000000
      6        1           0.012781136    0.004635963   -0.000000000
 -------------------------------------------------------------------
 Cartesian Forces:  Max     0.020918551 RMS     0.010130156

 GradGradGradGradGradGradGradGradGradGradGradGradGradGradGradGradGradGrad
 Berny optimization.
 FormGI is forming the generalized inverse of G from B-inverse, IUseBI=4.
 Internal  Forces:  Max     0.012781135 RMS     0.007134519
 Search for a local minimum.
 Step number   1 out of a maximum of   25
 All quantities printed in internal units (Hartrees-Bohrs-Radians)
 Mixed Optimization -- RFO/linear search
 Second derivative matrix not updated -- first step.
 The second derivative matrix:
                          R1        R2        R3        R4        R5
           R1           0.37230
           R2           0.00000   0.37230
           R3           0.00000   0.00000   0.53930
           R4           0.00000   0.00000   0.00000   0.37230
           R5           0.00000   0.00000   0.00000   0.00000   0.37230
           A1           0.00000   0.00000   0.00000   0.00000   0.00000
           A2           0.00000   0.00000   0.00000   0.00000   0.00000
           A3           0.00000   0.00000   0.00000   0.00000   0.00000
           A4           0.00000   0.00000   0.00000   0.00000   0.00000
           A5           0.00000   0.00000   0.00000   0.00000   0.00000
           A6           0.00000   0.00000   0.00000   0.00000   0.00000
           D1           0.00000   0.00000   0.00000   0.00000   0.00000
           D2           0.00000   0.00000   0.00000   0.00000   0.00000
           D3           0.00000   0.00000   0.00000   0.00000   0.00000
           D4           0.00000   0.00000   0.00000   0.00000   0.00000
                          A1        A2        A3        A4        A5
           A1           0.16000
           A2           0.00000   0.16000
           A3           0.00000   0.00000   0.16000
           A4           0.00000   0.00000   0.00000   0.16000
           A5           0.00000   0.00000   0.00000   0.00000   0.16000
           A6           0.00000   0.00000   0.00000   0.00000   0.00000
           D1           0.00000   0.00000   0.00000   0.00000   0.00000
           D2           0.00000   0.00000   0.00000   0.00000   0.00000
           D3           0.00000   0.00000   0.00000   0.00000   0.00000
           D4           0.00000   0.00000   0.00000   0.00000   0.00000
                          A6        D1        D2        D3        D4
           A6           0.16000
           D1           0.00000   0.02681
           D2           0.00000   0.00000   0.02681
           D3           0.00000   0.00000   0.00000   0.02681
           D4           0.00000   0.00000   0.00000   0.00000   0.02681
 ITU=  0
     Eigenvalues ---    0.02681   0.02681   0.02681   0.16000   0.16000
     Eigenvalues ---    0.16000   0.16000   0.37230   0.37230   0.37230
     Eigenvalues ---    0.37230   0.53930
 RFO step:  Lambda=-2.40087420D-03 EMin= 2.68137387D-02
 Linear search not attempted -- first point.
 Iteration  1 RMS(Cart)=  0.02443359 RMS(Int)=  0.00032275
 Iteration  2 RMS(Cart)=  0.00036562 RMS(Int)=  0.00000007
 Iteration  3 RMS(Cart)=  0.00000007 RMS(Int)=  0.00000000
 ClnCor:  largest displacement from symmetrization is 5.14D-14 for atom     4.
 Variable       Old X    -DE/DX   Delta X   Delta X   Delta X     New X
                                 (Linear)    (Quad)   (Total)
    R1        2.02201   0.01263   0.00000   0.03370   0.03370   2.05571
    R2        2.02201   0.01278   0.00000   0.03411   0.03411   2.05612
    R3        2.56096  -0.00333   0.00000  -0.00616  -0.00616   2.55480
    R4        2.02201   0.01263   0.00000   0.03370   0.03370   2.05571
    R5        2.02201   0.01278   0.00000   0.03411   0.03411   2.05612
    A1        2.09241  -0.00594   0.00000  -0.03658  -0.03658   2.05584
    A2        2.09836   0.00251   0.00000   0.01544   0.01544   2.11379
    A3        2.09241   0.00343   0.00000   0.02114   0.02114   2.11356
    A4        2.09836   0.00251   0.00000   0.01544   0.01544   2.11379
    A5        2.09241   0.00343   0.00000   0.02114   0.02114   2.11356
    A6        2.09241  -0.00594   0.00000  -0.03658  -0.03658   2.05584
    D1        3.14159   0.00000   0.00000  -0.00000   0.00000   3.14159
    D2       -0.00000  -0.00000   0.00000  -0.00000   0.00000   0.00000
    D3       -0.00000   0.00000   0.00000   0.00000   0.00000   0.00000
    D4        3.14159   0.00000   0.00000  -0.00000   0.00000   3.14159
         Item               Value     Threshold  Converged?
 Maximum Force            0.012781     0.000450     NO 
 RMS     Force            0.007135     0.000300     NO 
 Maximum Displacement     0.042744     0.001800     NO 
 RMS     Displacement     0.024544     0.001200     NO 
 Predicted change in Energy=-1.210860D-03
 GradGradGradGradGradGradGradGradGradGradGradGradGradGradGradGradGradGrad

                          Input orientation:                          
 ---------------------------------------------------------------------
 Center     Atomic      Atomic             Coordinates (Angstroms)
 Number     Number       Type             X           Y           Z
 ---------------------------------------------------------------------
      1          6           0       -3.913201    0.281473    0.000000
      2          1           0       -3.387349   -0.670821    0.000000
      3          1           0       -5.001045    0.260271    0.000000
      4          6           0       -3.237612    1.452510   -0.000000
      5          1           0       -3.763464    2.404804   -0.000000
      6          1           0       -2.149768    1.473712   -0.000000
 ---------------------------------------------------------------------
                    Distance matrix (angstroms):
                    1          2          3          4          5
     1  C    0.000000
     2  H    1.087835   0.000000
     3  H    1.088050   1.863048   0.000000
     4  C    1.351942   2.128604   2.128645   0.000000
     5  H    2.128604   3.098537   2.476011   1.087835   0.000000
     6  H    2.128645   2.476011   3.098745   1.088050   1.863048
                    6
     6  H    0.000000
 Stoichiometry    C2H4
 Framework group  C2H[SGH(C2H4)]
 Deg. of freedom     5
 Full point group                 C2H     NOp   4
 Largest Abelian subgroup         C2H     NOp   4
 Largest concise Abelian subgroup C2      NOp   2
                         Standard orientation:                         
 ---------------------------------------------------------------------
 Center     Atomic      Atomic             Coordinates (Angstroms)
 Number     Number       Type             X           Y           Z
 ---------------------------------------------------------------------
      1          6           0       -0.000000   -0.675971    0.000000
      2          1           0       -0.931365   -1.238060    0.000000
      3          1           0        0.931683   -1.237951    0.000000
      4          6           0       -0.000000    0.675971    0.000000
      5          1           0        0.931365    1.238060    0.000000
      6          1           0       -0.931683    1.237951    0.000000
 ---------------------------------------------------------------------
 Rotational constants (GHZ):         144.4721588          29.4766018          24.4816248
 Standard basis: SDD (6D, 10F)
 There are    12 symmetry adapted cartesian basis functions of AG  symmetry.
 There are     2 symmetry adapted cartesian basis functions of BG  symmetry.
 There are     2 symmetry adapted cartesian basis functions of AU  symmetry.
 There are    12 symmetry adapted cartesian basis functions of BU  symmetry.
 There are    12 symmetry adapted basis functions of AG  symmetry.
 There are     2 symmetry adapted basis functions of BG  symmetry.
 There are     2 symmetry adapted basis functions of AU  symmetry.
 There are    12 symmetry adapted basis functions of BU  symmetry.
    28 basis functions,    64 primitive gaussians,    28 cartesian basis functions
     8 alpha electrons        8 beta electrons
       nuclear repulsion energy        33.0682488098 Hartrees.
 NAtoms=    6 NActive=    6 NUniq=    3 SFac= 4.00D+00 NAtFMM=   60 NAOKFM=F Big=F
 Integral buffers will be    131072 words long.
 Raffenetti 2 integral format.
 Two-electron integral symmetry is turned on.
 One-electron integrals computed using PRISM.
   4 Symmetry operations used in ECPInt.
 ECPInt:  NShTT=     210 NPrTT=    1044 LenC2=     211 LenP2D=     949.
 LDataN:  DoStor=T MaxTD1= 2 Len=   12
 NBasis=    28 RedAO= T EigKep=  4.44D-03  NBF=    12     2     2    12
 NBsUse=    28 1.00D-06 EigRej= -1.00D+00 NBFU=    12     2     2    12
 Initial guess from the checkpoint file:  "/home/orie4521/For_James_M/Gau-870568.chk"
 B after Tr=    -0.000000   -0.000000    0.000000
         Rot=    1.000000   -0.000000    0.000000    0.000574 Ang=   0.07 deg.
 Initial guess orbital symmetries:
       Occupied  (AG) (BU) (AG) (BU) (BU) (AG) (AG) (AU)
       Virtual   (BG) (BU) (AG) (BU) (BU) (AG) (BU) (AG) (AU) (BG)
                 (AG) (AG) (BU) (BU) (AG) (BU) (BU) (AG) (AG) (BU)
 ExpMin= 1.15D-01 ExpMax= 4.23D+03 ExpMxC= 6.35D+02 IAcc=3 IRadAn=         5 AccDes= 0.00D+00
 Harris functional with IExCor=  402 and IRadAn=       5 diagonalized for initial guess.
 HarFok:  IExCor=  402 AccDes= 0.00D+00 IRadAn=         5 IDoV= 1 UseB2=F ITyADJ=14
 ICtDFT=  3500011 ScaDFX=  1.000000  1.000000  1.000000  1.000000
 FoFCou: FMM=F IPFlag=           0 FMFlag=      100000 FMFlg1=           0
         NFxFlg=           0 DoJE=T BraDBF=F KetDBF=T FulRan=T
         wScrn=  0.000000 ICntrl=       500 IOpCl=  0 I1Cent=   200000004 NGrid=           0
         NMat0=    1 NMatS0=      1 NMatT0=    0 NMatD0=    1 NMtDS0=    0 NMtDT0=    0
 Petite list used in FoFCou.
 Keep R1 ints in memory in symmetry-blocked form, NReq=13902949.
 Requested convergence on RMS density matrix=1.00D-08 within 128 cycles.
 Requested convergence on MAX density matrix=1.00D-06.
 Requested convergence on             energy=1.00D-06.
 No special actions if energy rises.
 Integral accuracy reduced to 1.0D-05 until final iterations.
 Initial convergence to 1.0D-05 achieved.  Increase integral accuracy.
 SCF Done:  E(RB3LYP) =  -78.5781755191     A.U. after    8 cycles
            NFock=  8  Conv=0.20D-08     -V/T= 2.0071
   4 Symmetry operations used in ECPInt.
 ECPInt:  NShTT=     210 NPrTT=    1044 LenC2=     211 LenP2D=     949.
 LDataN:  DoStor=T MaxTD1= 3 Len=   28
 Calling FoFJK, ICntrl=      2127 FMM=F ISym2X=1 I1Cent= 0 IOpClX= 0 NMat=1 NMatS=1 NMatT=0.
 ***** Axes restored to original set *****
 -------------------------------------------------------------------
 Center     Atomic                   Forces (Hartrees/Bohr)
 Number     Number              X              Y              Z
 -------------------------------------------------------------------
      1        6           0.002672573    0.004926052   -0.000000000
      2        1          -0.001429830   -0.001003956    0.000000000
      3        1          -0.000012087   -0.001749461   -0.000000000
      4        6          -0.002672573   -0.004926052   -0.000000000
      5        1           0.001429830    0.001003956   -0.000000000
      6        1           0.000012087    0.001749461   -0.000000000
 -------------------------------------------------------------------
 Cartesian Forces:  Max     0.004926052 RMS     0.002041833

 GradGradGradGradGradGradGradGradGradGradGradGradGradGradGradGradGradGrad
 Berny optimization.
 Using GEDIIS/GDIIS optimizer.
 FormGI is forming the generalized inverse of G from B-inverse, IUseBI=4.
 Internal  Forces:  Max     0.002496891 RMS     0.001249805
 Search for a local minimum.
 Step number   2 out of a maximum of   25
 All quantities printed in internal units (Hartrees-Bohrs-Radians)
 Mixed Optimization -- RFO/linear search
 Update second derivatives using D2CorX and points    1    2
 DE= -1.33D-03 DEPred=-1.21D-03 R= 1.10D+00
 TightC=F SS=  1.41D+00  RLast= 9.32D-02 DXNew= 5.0454D-01 2.7955D-01
 Trust test= 1.10D+00 RLast= 9.32D-02 DXMaxT set to 3.00D-01
 The second derivative matrix:
                          R1        R2        R3        R4        R5
           R1           0.37959
           R2           0.00823   0.38150
           R3           0.01256   0.01265   0.53500
           R4           0.00729   0.00823   0.01256   0.37959
           R5           0.00823   0.00920   0.01265   0.00823   0.38150
           A1           0.00989   0.00977  -0.00675   0.00989   0.00977
           A2          -0.00520  -0.00517   0.00292  -0.00520  -0.00517
           A3          -0.00469  -0.00460   0.00383  -0.00469  -0.00460
           A4          -0.00520  -0.00517   0.00292  -0.00520  -0.00517
           A5          -0.00469  -0.00460   0.00383  -0.00469  -0.00460
           A6           0.00989   0.00977  -0.00675   0.00989   0.00977
           D1           0.00000   0.00000  -0.00000   0.00000   0.00000
           D2          -0.00000  -0.00000   0.00000  -0.00000  -0.00000
           D3           0.00000   0.00000  -0.00000   0.00000   0.00000
           D4           0.00000   0.00000  -0.00000   0.00000   0.00000
                          A1        A2        A3        A4        A5
           A1           0.15159
           A2           0.00384   0.15827
           A3           0.00457  -0.00211   0.15754
           A4           0.00384  -0.00173  -0.00211   0.15827
           A5           0.00457  -0.00211  -0.00246  -0.00211   0.15754
           A6          -0.00841   0.00384   0.00457   0.00384   0.00457
           D1          -0.00000   0.00000   0.00000   0.00000   0.00000
           D2           0.00000  -0.00000  -0.00000  -0.00000  -0.00000
           D3          -0.00000   0.00000   0.00000   0.00000   0.00000
           D4          -0.00000   0.00000   0.00000   0.00000   0.00000
                          A6        D1        D2        D3        D4
           A6           0.15159
           D1          -0.00000   0.02681
           D2           0.00000  -0.00000   0.02681
           D3          -0.00000   0.00000  -0.00000   0.02681
           D4          -0.00000   0.00000  -0.00000   0.00000   0.02681
 ITU=  1  0
 Use linear search instead of GDIIS.
     Eigenvalues ---    0.02681   0.02681   0.02681   0.12998   0.16000
     Eigenvalues ---    0.16000   0.16007   0.37223   0.37230   0.37230
     Eigenvalues ---    0.40531   0.53980
 RFO step:  Lambda=-1.10380057D-04 EMin= 2.68137387D-02
 Quartic linear search produced a step of  0.14618.
 Iteration  1 RMS(Cart)=  0.00892975 RMS(Int)=  0.00004878
 Iteration  2 RMS(Cart)=  0.00004909 RMS(Int)=  0.00000000
 Iteration  3 RMS(Cart)=  0.00000000 RMS(Int)=  0.00000000
 ClnCor:  largest displacement from symmetrization is 2.96D-14 for atom     5.
 Variable       Old X    -DE/DX   Delta X   Delta X   Delta X     New X
                                 (Linear)    (Quad)   (Total)
    R1        2.05571   0.00019   0.00493  -0.00273   0.00220   2.05791
    R2        2.05612   0.00005   0.00499  -0.00321   0.00178   2.05790
    R3        2.55480  -0.00250  -0.00090  -0.00469  -0.00559   2.54921
    R4        2.05571   0.00019   0.00493  -0.00273   0.00220   2.05791
    R5        2.05612   0.00005   0.00499  -0.00321   0.00178   2.05790
    A1        2.05584  -0.00239  -0.00535  -0.01369  -0.01903   2.03680
    A2        2.11379   0.00118   0.00226   0.00702   0.00928   2.12307
    A3        2.11356   0.00121   0.00309   0.00667   0.00976   2.12331
    A4        2.11379   0.00118   0.00226   0.00702   0.00928   2.12307
    A5        2.11356   0.00121   0.00309   0.00667   0.00976   2.12331
    A6        2.05584  -0.00239  -0.00535  -0.01369  -0.01903   2.03680
    D1        3.14159   0.00000   0.00000  -0.00000   0.00000   3.14159
    D2        0.00000  -0.00000   0.00000   0.00000   0.00000   0.00000
    D3        0.00000  -0.00000   0.00000  -0.00000   0.00000   0.00000
    D4        3.14159  -0.00000   0.00000  -0.00000   0.00000   3.14159
         Item               Value     Threshold  Converged?
 Maximum Force            0.002497     0.000450     NO 
 RMS     Force            0.001250     0.000300     NO 
 Maximum Displacement     0.017233     0.001800     NO 
 RMS     Displacement     0.008938     0.001200     NO 
 Predicted change in Energy=-7.371540D-05
 GradGradGradGradGradGradGradGradGradGradGradGradGradGradGradGradGradGrad

                          Input orientation:                          
 ---------------------------------------------------------------------
 Center     Atomic      Atomic             Coordinates (Angstroms)
 Number     Number       Type             X           Y           Z
 ---------------------------------------------------------------------
      1          6           0       -3.912559    0.282812    0.000000
      2          1           0       -3.395171   -0.675428    0.000000
      3          1           0       -5.001092    0.251152    0.000000
      4          6           0       -3.238253    1.451171    0.000000
      5          1           0       -3.755642    2.409412    0.000000
      6          1           0       -2.149721    1.482831    0.000000
 ---------------------------------------------------------------------
                    Distance matrix (angstroms):
                    1          2          3          4          5
     1  C    0.000000
     2  H    1.088997   0.000000
     3  H    1.088993   1.854058   0.000000
     4  C    1.348982   2.132381   2.132521   0.000000
     5  H    2.132381   3.105830   2.491833   1.088997   0.000000
     6  H    2.132521   2.491833   3.106018   1.088993   1.854058
                    6
     6  H    0.000000
 Stoichiometry    C2H4
 Framework group  C2H[SGH(C2H4)]
 Deg. of freedom     5
 Full point group                 C2H     NOp   4
 Largest Abelian subgroup         C2H     NOp   4
 Largest concise Abelian subgroup C2      NOp   2
                         Standard orientation:                         
 ---------------------------------------------------------------------
 Center     Atomic      Atomic             Coordinates (Angstroms)
 Number     Number       Type             X           Y           Z
 ---------------------------------------------------------------------
      1          6           0        0.000000   -0.674491    0.000000
      2          1           0       -0.927101   -1.245804    0.000000
      3          1           0        0.926957   -1.246029    0.000000
      4          6           0       -0.000000    0.674491    0.000000
      5          1           0        0.927101    1.245804    0.000000
      6          1           0       -0.926957    1.246029    0.000000
 ---------------------------------------------------------------------
 Rotational constants (GHZ):         145.8764648          29.4229846          24.4845092
 Standard basis: SDD (6D, 10F)
 There are    12 symmetry adapted cartesian basis functions of AG  symmetry.
 There are     2 symmetry adapted cartesian basis functions of BG  symmetry.
 There are     2 symmetry adapted cartesian basis functions of AU  symmetry.
 There are    12 symmetry adapted cartesian basis functions of BU  symmetry.
 There are    12 symmetry adapted basis functions of AG  symmetry.
 There are     2 symmetry adapted basis functions of BG  symmetry.
 There are     2 symmetry adapted basis functions of AU  symmetry.
 There are    12 symmetry adapted basis functions of BU  symmetry.
    28 basis functions,    64 primitive gaussians,    28 cartesian basis functions
     8 alpha electrons        8 beta electrons
       nuclear repulsion energy        33.0764221704 Hartrees.
 NAtoms=    6 NActive=    6 NUniq=    3 SFac= 4.00D+00 NAtFMM=   60 NAOKFM=F Big=F
 Integral buffers will be    131072 words long.
 Raffenetti 2 integral format.
 Two-electron integral symmetry is turned on.
 One-electron integrals computed using PRISM.
   4 Symmetry operations used in ECPInt.
 ECPInt:  NShTT=     210 NPrTT=    1044 LenC2=     211 LenP2D=     949.
 LDataN:  DoStor=T MaxTD1= 2 Len=   12
 NBasis=    28 RedAO= T EigKep=  4.53D-03  NBF=    12     2     2    12
 NBsUse=    28 1.00D-06 EigRej= -1.00D+00 NBFU=    12     2     2    12
 Initial guess from the checkpoint file:  "/home/orie4521/For_James_M/Gau-870568.chk"
 B after Tr=    -0.000000    0.000000    0.000000
         Rot=    1.000000    0.000000    0.000000    0.000059 Ang=   0.01 deg.
 Initial guess orbital symmetries:
       Occupied  (AG) (BU) (AG) (BU) (BU) (AG) (AG) (AU)
       Virtual   (BG) (BU) (AG) (BU) (BU) (AG) (BU) (AG) (AU) (BG)
                 (AG) (AG) (BU) (BU) (AG) (BU) (BU) (AG) (AG) (BU)
 Keep R1 ints in memory in symmetry-blocked form, NReq=13902949.
 Requested convergence on RMS density matrix=1.00D-08 within 128 cycles.
 Requested convergence on MAX density matrix=1.00D-06.
 Requested convergence on             energy=1.00D-06.
 No special actions if energy rises.
 SCF Done:  E(RB3LYP) =  -78.5782616492     A.U. after    6 cycles
            NFock=  6  Conv=0.25D-08     -V/T= 2.0071
   4 Symmetry operations used in ECPInt.
 ECPInt:  NShTT=     210 NPrTT=    1044 LenC2=     211 LenP2D=     949.
 LDataN:  DoStor=T MaxTD1= 3 Len=   28
 Calling FoFJK, ICntrl=      2127 FMM=F ISym2X=1 I1Cent= 0 IOpClX= 0 NMat=1 NMatS=1 NMatT=0.
 ***** Axes restored to original set *****
 -------------------------------------------------------------------
 Center     Atomic                   Forces (Hartrees/Bohr)
 Number     Number              X              Y              Z
 -------------------------------------------------------------------
      1        6           0.000261406    0.000382916   -0.000000000
      2        1          -0.000439188    0.000215425    0.000000000
      3        1           0.000408950   -0.000254706   -0.000000000
      4        6          -0.000261406   -0.000382916    0.000000000
      5        1           0.000439188   -0.000215425   -0.000000000
      6        1          -0.000408950    0.000254706   -0.000000000
 -------------------------------------------------------------------
 Cartesian Forces:  Max     0.000439188 RMS     0.000276158

 GradGradGradGradGradGradGradGradGradGradGradGradGradGradGradGradGradGrad
 Berny optimization.
 Using GEDIIS/GDIIS optimizer.
 FormGI is forming the generalized inverse of G from B-inverse, IUseBI=4.
 Internal  Forces:  Max     0.000413177 RMS     0.000287441
 Search for a local minimum.
 Step number   3 out of a maximum of   25
 All quantities printed in internal units (Hartrees-Bohrs-Radians)
 Mixed Optimization -- En-DIIS/RFO-DIIS
 Update second derivatives using D2CorX and points    1    2    3
 DE= -8.61D-05 DEPred=-7.37D-05 R= 1.17D+00
 TightC=F SS=  1.41D+00  RLast= 3.37D-02 DXNew= 5.0454D-01 1.0103D-01
 Trust test= 1.17D+00 RLast= 3.37D-02 DXMaxT set to 3.00D-01
 The second derivative matrix:
                          R1        R2        R3        R4        R5
           R1           0.38557
           R2           0.01382   0.38671
           R3           0.00799   0.00801   0.52789
           R4           0.01327   0.01382   0.00799   0.38557
           R5           0.01382   0.01441   0.00801   0.01382   0.38671
           A1           0.00517   0.00496  -0.01411   0.00517   0.00496
           A2          -0.00309  -0.00301   0.00677  -0.00309  -0.00301
           A3          -0.00208  -0.00196   0.00734  -0.00208  -0.00196
           A4          -0.00309  -0.00301   0.00677  -0.00309  -0.00301
           A5          -0.00208  -0.00196   0.00734  -0.00208  -0.00196
           A6           0.00517   0.00496  -0.01411   0.00517   0.00496
           D1           0.00000   0.00000  -0.00000   0.00000   0.00000
           D2          -0.00000  -0.00000  -0.00000  -0.00000  -0.00000
           D3           0.00000   0.00000   0.00000   0.00000   0.00000
           D4           0.00000   0.00000   0.00000   0.00000   0.00000
                          A1        A2        A3        A4        A5
           A1           0.14398
           A2           0.00783   0.15620
           A3           0.00819  -0.00402   0.15583
           A4           0.00783  -0.00380  -0.00402   0.15620
           A5           0.00819  -0.00402  -0.00417  -0.00402   0.15583
           A6          -0.01602   0.00783   0.00819   0.00783   0.00819
           D1          -0.00000   0.00000   0.00000   0.00000   0.00000
           D2          -0.00000   0.00000  -0.00000   0.00000  -0.00000
           D3           0.00000  -0.00000   0.00000  -0.00000   0.00000
           D4           0.00000  -0.00000  -0.00000  -0.00000  -0.00000
                          A6        D1        D2        D3        D4
           A6           0.14398
           D1          -0.00000   0.02681
           D2          -0.00000  -0.00000   0.02681
           D3           0.00000   0.00000  -0.00000   0.02681
           D4           0.00000   0.00000  -0.00000   0.00000   0.02681
 ITU=  1  1  0
 Use linear search instead of GDIIS.
     Eigenvalues ---    0.02681   0.02681   0.02681   0.10944   0.16000
     Eigenvalues ---    0.16000   0.16007   0.37230   0.37230   0.37232
     Eigenvalues ---    0.42656   0.53149
 RFO step:  Lambda=-2.22207407D-06 EMin= 2.68137387D-02
 Quartic linear search produced a step of  0.15735.
 Iteration  1 RMS(Cart)=  0.00165760 RMS(Int)=  0.00000158
 Iteration  2 RMS(Cart)=  0.00000163 RMS(Int)=  0.00000000
 Iteration  3 RMS(Cart)=  0.00000000 RMS(Int)=  0.00000000
 ClnCor:  largest displacement from symmetrization is 1.17D-14 for atom     6.
 Variable       Old X    -DE/DX   Delta X   Delta X   Delta X     New X
                                 (Linear)    (Quad)   (Total)
    R1        2.05791  -0.00040   0.00035  -0.00114  -0.00079   2.05711
    R2        2.05790  -0.00040   0.00028  -0.00108  -0.00080   2.05710
    R3        2.54921  -0.00041  -0.00088  -0.00012  -0.00100   2.54821
    R4        2.05791  -0.00040   0.00035  -0.00114  -0.00079   2.05711
    R5        2.05790  -0.00040   0.00028  -0.00108  -0.00080   2.05710
    A1        2.03680  -0.00038  -0.00299  -0.00034  -0.00334   2.03347
    A2        2.12307   0.00021   0.00146   0.00030   0.00176   2.12483
    A3        2.12331   0.00017   0.00154   0.00004   0.00158   2.12489
    A4        2.12307   0.00021   0.00146   0.00030   0.00176   2.12483
    A5        2.12331   0.00017   0.00154   0.00004   0.00158   2.12489
    A6        2.03680  -0.00038  -0.00299  -0.00034  -0.00334   2.03347
    D1        3.14159  -0.00000   0.00000  -0.00000   0.00000   3.14159
    D2        0.00000   0.00000   0.00000  -0.00000   0.00000   0.00000
    D3        0.00000  -0.00000   0.00000   0.00000   0.00000   0.00000
    D4        3.14159  -0.00000   0.00000   0.00000   0.00000   3.14159
         Item               Value     Threshold  Converged?
 Maximum Force            0.000413     0.000450     YES
 RMS     Force            0.000287     0.000300     YES
 Maximum Displacement     0.003157     0.001800     NO 
 RMS     Displacement     0.001658     0.001200     NO 
 Predicted change in Energy=-2.748253D-06
 GradGradGradGradGradGradGradGradGradGradGradGradGradGradGradGradGradGrad

                          Input orientation:                          
 ---------------------------------------------------------------------
 Center     Atomic      Atomic             Coordinates (Angstroms)
 Number     Number       Type             X           Y           Z
 ---------------------------------------------------------------------
      1          6           0       -3.912396    0.283023    0.000000
      2          1           0       -3.396842   -0.675728    0.000000
      3          1           0       -5.000451    0.249600    0.000000
      4          6           0       -3.238417    1.450960    0.000000
      5          1           0       -3.753971    2.409712    0.000000
      6          1           0       -2.150362    1.484383    0.000000
 ---------------------------------------------------------------------
                    Distance matrix (angstroms):
                    1          2          3          4          5
     1  C    0.000000
     2  H    1.088578   0.000000
     3  H    1.088568   1.851431   0.000000
     4  C    1.348453   2.132581   2.132611   0.000000
     5  H    2.132581   3.106040   2.493952   1.088578   0.000000
     6  H    2.132611   2.493952   3.106075   1.088568   1.851431
                    6
     6  H    0.000000
 Stoichiometry    C2H4
 Framework group  C2H[SGH(C2H4)]
 Deg. of freedom     5
 Full point group                 C2H     NOp   4
 Largest Abelian subgroup         C2H     NOp   4
 Largest concise Abelian subgroup C2      NOp   2
                         Standard orientation:                         
 ---------------------------------------------------------------------
 Center     Atomic      Atomic             Coordinates (Angstroms)
 Number     Number       Type             X           Y           Z
 ---------------------------------------------------------------------
      1          6           0        0.000000   -0.674226   -0.000000
      2          1           0       -0.925738   -1.246948    0.000000
      3          1           0        0.925693   -1.247003   -0.000000
      4          6           0        0.000000    0.674226   -0.000000
      5          1           0        0.925738    1.246948   -0.000000
      6          1           0       -0.925693    1.247003   -0.000000
 ---------------------------------------------------------------------
 Rotational constants (GHZ):         146.2908117          29.4194296          24.4936903
 Standard basis: SDD (6D, 10F)
 There are    12 symmetry adapted cartesian basis functions of AG  symmetry.
 There are     2 symmetry adapted cartesian basis functions of BG  symmetry.
 There are     2 symmetry adapted cartesian basis functions of AU  symmetry.
 There are    12 symmetry adapted cartesian basis functions of BU  symmetry.
 There are    12 symmetry adapted basis functions of AG  symmetry.
 There are     2 symmetry adapted basis functions of BG  symmetry.
 There are     2 symmetry adapted basis functions of AU  symmetry.
 There are    12 symmetry adapted basis functions of BU  symmetry.
    28 basis functions,    64 primitive gaussians,    28 cartesian basis functions
     8 alpha electrons        8 beta electrons
       nuclear repulsion energy        33.0865194915 Hartrees.
 NAtoms=    6 NActive=    6 NUniq=    3 SFac= 4.00D+00 NAtFMM=   60 NAOKFM=F Big=F
 Integral buffers will be    131072 words long.
 Raffenetti 2 integral format.
 Two-electron integral symmetry is turned on.
 One-electron integrals computed using PRISM.
   4 Symmetry operations used in ECPInt.
 ECPInt:  NShTT=     210 NPrTT=    1044 LenC2=     211 LenP2D=     949.
 LDataN:  DoStor=T MaxTD1= 2 Len=   12
 NBasis=    28 RedAO= T EigKep=  4.55D-03  NBF=    12     2     2    12
 NBsUse=    28 1.00D-06 EigRej= -1.00D+00 NBFU=    12     2     2    12
 Initial guess from the checkpoint file:  "/home/orie4521/For_James_M/Gau-870568.chk"
 B after Tr=     0.000000   -0.000000   -0.000000
         Rot=    1.000000   -0.000000   -0.000000   -0.000019 Ang=  -0.00 deg.
 Initial guess orbital symmetries:
       Occupied  (AG) (BU) (AG) (BU) (BU) (AG) (AG) (AU)
       Virtual   (BG) (BU) (AG) (BU) (BU) (AG) (BU) (AU) (AG) (BG)
                 (AG) (AG) (BU) (BU) (AG) (BU) (BU) (AG) (AG) (BU)
 Keep R1 ints in memory in symmetry-blocked form, NReq=13902949.
 Requested convergence on RMS density matrix=1.00D-08 within 128 cycles.
 Requested convergence on MAX density matrix=1.00D-06.
 Requested convergence on             energy=1.00D-06.
 No special actions if energy rises.
 SCF Done:  E(RB3LYP) =  -78.5782645571     A.U. after    5 cycles
            NFock=  5  Conv=0.92D-08     -V/T= 2.0070
   4 Symmetry operations used in ECPInt.
 ECPInt:  NShTT=     210 NPrTT=    1044 LenC2=     211 LenP2D=     949.
 LDataN:  DoStor=T MaxTD1= 3 Len=   28
 Calling FoFJK, ICntrl=      2127 FMM=F ISym2X=1 I1Cent= 0 IOpClX= 0 NMat=1 NMatS=1 NMatT=0.
 ***** Axes restored to original set *****
 -------------------------------------------------------------------
 Center     Atomic                   Forces (Hartrees/Bohr)
 Number     Number              X              Y              Z
 -------------------------------------------------------------------
      1        6          -0.000012446   -0.000048791   -0.000000000
      2        1          -0.000043302    0.000064021    0.000000000
      3        1           0.000072240   -0.000001121    0.000000000
      4        6           0.000012446    0.000048791    0.000000000
      5        1           0.000043302   -0.000064021   -0.000000000
      6        1          -0.000072240    0.000001121   -0.000000000
 -------------------------------------------------------------------
 Cartesian Forces:  Max     0.000072240 RMS     0.000039057

 GradGradGradGradGradGradGradGradGradGradGradGradGradGradGradGradGradGrad
 Berny optimization.
 Using GEDIIS/GDIIS optimizer.
 FormGI is forming the generalized inverse of G from B-inverse, IUseBI=4.
 Internal  Forces:  Max     0.000076894 RMS     0.000039091
 Search for a local minimum.
 Step number   4 out of a maximum of   25
 All quantities printed in internal units (Hartrees-Bohrs-Radians)
 Mixed Optimization -- En-DIIS/RFO-DIIS
 Swapping is turned off.
 Update second derivatives using D2CorX and points    1    2    3    4
 DE= -2.91D-06 DEPred=-2.75D-06 R= 1.06D+00
 TightC=F SS=  1.41D+00  RLast= 6.08D-03 DXNew= 5.0454D-01 1.8247D-02
 Trust test= 1.06D+00 RLast= 6.08D-03 DXMaxT set to 3.00D-01
 The second derivative matrix:
                          R1        R2        R3        R4        R5
           R1           0.37336
           R2           0.00185   0.37502
           R3           0.00328   0.00371   0.52663
           R4           0.00106   0.00185   0.00328   0.37336
           R5           0.00185   0.00272   0.00371   0.00185   0.37502
           A1           0.00181   0.00196  -0.01452   0.00181   0.00196
           A2          -0.00085  -0.00094   0.00730  -0.00085  -0.00094
           A3          -0.00097  -0.00101   0.00722  -0.00097  -0.00101
           A4          -0.00085  -0.00094   0.00730  -0.00085  -0.00094
           A5          -0.00097  -0.00101   0.00722  -0.00097  -0.00101
           A6           0.00181   0.00196  -0.01452   0.00181   0.00196
           D1           0.00000   0.00000   0.00000   0.00000   0.00000
           D2          -0.00000  -0.00000  -0.00000  -0.00000  -0.00000
           D3           0.00000   0.00000   0.00000   0.00000   0.00000
           D4           0.00000   0.00000   0.00000   0.00000   0.00000
                          A1        A2        A3        A4        A5
           A1           0.14448
           A2           0.00783   0.15604
           A3           0.00769  -0.00387   0.15618
           A4           0.00783  -0.00396  -0.00387   0.15604
           A5           0.00769  -0.00387  -0.00382  -0.00387   0.15618
           A6          -0.01552   0.00783   0.00769   0.00783   0.00769
           D1           0.00000  -0.00000  -0.00000  -0.00000  -0.00000
           D2           0.00000   0.00000  -0.00000   0.00000  -0.00000
           D3          -0.00000  -0.00000   0.00000  -0.00000   0.00000
           D4           0.00000  -0.00000  -0.00000  -0.00000  -0.00000
                          A6        D1        D2        D3        D4
           A6           0.14448
           D1           0.00000   0.02681
           D2           0.00000  -0.00000   0.02681
           D3          -0.00000   0.00000  -0.00000   0.02681
           D4           0.00000   0.00000  -0.00000   0.00000   0.02681
 ITU=  1  1  1  0
     Eigenvalues ---    0.02681   0.02681   0.02681   0.11173   0.15997
     Eigenvalues ---    0.16000   0.16000   0.37202   0.37230   0.37230
     Eigenvalues ---    0.38001   0.52845
 En-DIIS/RFO-DIIS/Sim-DIIS IScMMF=       -3 using points:     4    3
 RFO step:  Lambda=-5.72754739D-08.
 DidBck=F Rises=F RFO-DIIS coefs:    1.03425   -0.03425
 Iteration  1 RMS(Cart)=  0.00010935 RMS(Int)=  0.00000000
 Iteration  2 RMS(Cart)=  0.00000000 RMS(Int)=  0.00000000
 ClnCor:  largest displacement from symmetrization is 1.51D-14 for atom     6.
 Variable       Old X    -DE/DX   Delta X   Delta X   Delta X     New X
                                 (Linear)    (Quad)   (Total)
    R1        2.05711  -0.00008  -0.00003  -0.00018  -0.00020   2.05691
    R2        2.05710  -0.00007  -0.00003  -0.00016  -0.00019   2.05691
    R3        2.54821  -0.00002  -0.00003  -0.00000  -0.00004   2.54817
    R4        2.05711  -0.00008  -0.00003  -0.00018  -0.00020   2.05691
    R5        2.05710  -0.00007  -0.00003  -0.00016  -0.00019   2.05691
    A1        2.03347  -0.00001  -0.00011   0.00005  -0.00006   2.03341
    A2        2.12483   0.00001   0.00006  -0.00000   0.00006   2.12489
    A3        2.12489  -0.00000   0.00005  -0.00005   0.00000   2.12489
    A4        2.12483   0.00001   0.00006  -0.00000   0.00006   2.12489
    A5        2.12489  -0.00000   0.00005  -0.00005   0.00000   2.12489
    A6        2.03347  -0.00001  -0.00011   0.00005  -0.00006   2.03341
    D1        3.14159  -0.00000   0.00000  -0.00000   0.00000   3.14159
    D2       -0.00000  -0.00000   0.00000  -0.00000   0.00000   0.00000
    D3        0.00000   0.00000   0.00000   0.00000  -0.00000   0.00000
    D4        3.14159   0.00000   0.00000   0.00000   0.00000   3.14159
         Item               Value     Threshold  Converged?
 Maximum Force            0.000077     0.000450     YES
 RMS     Force            0.000039     0.000300     YES
 Maximum Displacement     0.000219     0.001800     YES
 RMS     Displacement     0.000109     0.001200     YES
 Predicted change in Energy=-3.045805D-08
 Optimization completed.
    -- Stationary point found.
                           ----------------------------
                           !   Optimized Parameters   !
                           ! (Angstroms and Degrees)  !
 --------------------------                            --------------------------
 ! Name  Definition              Value          Derivative Info.                !
 --------------------------------------------------------------------------------
 ! R1    R(1,2)                  1.0886         -DE/DX =   -0.0001              !
 ! R2    R(1,3)                  1.0886         -DE/DX =   -0.0001              !
 ! R3    R(1,4)                  1.3485         -DE/DX =    0.0                 !
 ! R4    R(4,5)                  1.0886         -DE/DX =   -0.0001              !
 ! R5    R(4,6)                  1.0886         -DE/DX =   -0.0001              !
 ! A1    A(2,1,3)              116.509          -DE/DX =    0.0                 !
 ! A2    A(2,1,4)              121.7436         -DE/DX =    0.0                 !
 ! A3    A(3,1,4)              121.7474         -DE/DX =    0.0                 !
 ! A4    A(1,4,5)              121.7436         -DE/DX =    0.0                 !
 ! A5    A(1,4,6)              121.7474         -DE/DX =    0.0                 !
 ! A6    A(5,4,6)              116.509          -DE/DX =    0.0                 !
 ! D1    D(2,1,4,5)            180.0            -DE/DX =    0.0                 !
 ! D2    D(2,1,4,6)              0.0            -DE/DX =    0.0                 !
 ! D3    D(3,1,4,5)              0.0            -DE/DX =    0.0                 !
 ! D4    D(3,1,4,6)            180.0            -DE/DX =    0.0                 !
 --------------------------------------------------------------------------------
 GradGradGradGradGradGradGradGradGradGradGradGradGradGradGradGradGradGrad

                          Input orientation:                          
 ---------------------------------------------------------------------
 Center     Atomic      Atomic             Coordinates (Angstroms)
 Number     Number       Type             X           Y           Z
 ---------------------------------------------------------------------
      1          6           0       -3.912396    0.283023   -0.000000
      2          1           0       -3.396842   -0.675728   -0.000000
      3          1           0       -5.000451    0.249600   -0.000000
      4          6           0       -3.238417    1.450960    0.000000
      5          1           0       -3.753971    2.409712    0.000000
      6          1           0       -2.150362    1.484383    0.000000
 ---------------------------------------------------------------------
                    Distance matrix (angstroms):
                    1          2          3          4          5
     1  C    0.000000
     2  H    1.088578   0.000000
     3  H    1.088568   1.851431   0.000000
     4  C    1.348453   2.132581   2.132611   0.000000
     5  H    2.132581   3.106040   2.493952   1.088578   0.000000
     6  H    2.132611   2.493952   3.106075   1.088568   1.851431
                    6
     6  H    0.000000
 Stoichiometry    C2H4
 Framework group  C2H[SGH(C2H4)]
 Deg. of freedom     5
 Full point group                 C2H     NOp   4
 Largest Abelian subgroup         C2H     NOp   4
 Largest concise Abelian subgroup C2      NOp   2
                         Standard orientation:                         
 ---------------------------------------------------------------------
 Center     Atomic      Atomic             Coordinates (Angstroms)
 Number     Number       Type             X           Y           Z
 ---------------------------------------------------------------------
      1          6           0        0.000000   -0.674226   -0.000000
      2          1           0       -0.925738   -1.246948    0.000000
      3          1           0        0.925693   -1.247003   -0.000000
      4          6           0       -0.000000    0.674226   -0.000000
      5          1           0        0.925738    1.246948    0.000000
      6          1           0       -0.925693    1.247003   -0.000000
 ---------------------------------------------------------------------
 Rotational constants (GHZ):         146.2908117          29.4194296          24.4936903

 **********************************************************************

            Population analysis using the SCF Density.

 **********************************************************************

 Orbital symmetries:
       Occupied  (AG) (BU) (AG) (BU) (BU) (AG) (AG) (AU)
       Virtual   (BG) (BU) (AG) (BU) (BU) (AG) (BU) (AU) (AG) (BG)
                 (AG) (AG) (BU) (BU) (AG) (BU) (BU) (AG) (AG) (BU)
 The electronic state is 1-AG.
 Alpha  occ. eigenvalues --  -10.19272 -10.19197  -0.76060  -0.58210  -0.46933
 Alpha  occ. eigenvalues --   -0.42160  -0.35768  -0.27264
 Alpha virt. eigenvalues --   -0.00075   0.13392   0.14883   0.19817   0.25566
 Alpha virt. eigenvalues --    0.26168   0.29258   0.31662   0.31711   0.40195
 Alpha virt. eigenvalues --    0.51514   0.55230   0.61053   0.89363   1.02235
 Alpha virt. eigenvalues --    1.12110   1.18117   1.38147  22.60913  22.90240
          Condensed to atoms (all electrons):
               1          2          3          4          5          6
     1  C    5.090413   0.391923   0.391922   0.600114  -0.034678  -0.034674
     2  H    0.391923   0.461270  -0.019834  -0.034678   0.001915  -0.003100
     3  H    0.391922  -0.019834   0.461255  -0.034674  -0.003100   0.001914
     4  C    0.600114  -0.034678  -0.034674   5.090413   0.391923   0.391922
     5  H   -0.034678   0.001915  -0.003100   0.391923   0.461270  -0.019834
     6  H   -0.034674  -0.003100   0.001914   0.391922  -0.019834   0.461255
 Mulliken charges:
               1
     1  C   -0.405021
     2  H    0.202504
     3  H    0.202517
     4  C   -0.405021
     5  H    0.202504
     6  H    0.202517
 Sum of Mulliken charges =   0.00000
 Mulliken charges with hydrogens summed into heavy atoms:
               1
     1  C    0.000000
     4  C    0.000000
 Electronic spatial extent (au):  <R**2>=             83.2116
 Charge=             -0.0000 electrons
 Dipole moment (field-independent basis, Debye):
    X=             -0.0000    Y=             -0.0000    Z=             -0.0000  Tot=              0.0000
 Quadrupole moment (field-independent basis, Debye-Ang):
   XX=            -11.8989   YY=            -11.7771   ZZ=            -15.7058
   XY=             -0.0001   XZ=             -0.0000   YZ=             -0.0000
 Traceless Quadrupole moment (field-independent basis, Debye-Ang):
   XX=              1.2283   YY=              1.3502   ZZ=             -2.5785
   XY=             -0.0001   XZ=             -0.0000   YZ=             -0.0000
 Octapole moment (field-independent basis, Debye-Ang**2):
  XXX=             -0.0000  YYY=             -0.0000  ZZZ=              0.0000  XYY=             -0.0000
  XXY=              0.0000  XXZ=             -0.0000  XZZ=             -0.0000  YZZ=             -0.0000
  YYZ=             -0.0000  XYZ=             -0.0000
 Hexadecapole moment (field-independent basis, Debye-Ang**3):
 XXXX=            -25.0023 YYYY=            -65.9983 ZZZZ=            -18.4358 XXXY=             -0.0001
 XXXZ=             -0.0000 YYYX=             -0.0008 YYYZ=             -0.0000 ZZZX=             -0.0000
 ZZZY=             -0.0000 XXYY=            -12.1271 XXZZ=             -7.9274 YYZZ=            -15.3754
 XXYZ=             -0.0000 YYXZ=             -0.0000 ZZXY=             -0.0001
 N-N= 3.308651949151D+01 E-N=-2.477127143380D+02  KE= 7.802917480745D+01
 Symmetry AG   KE= 3.959482754544D+01
 Symmetry BG   KE=-9.335185173079D-34
 Symmetry AU   KE= 2.053352054207D+00
 Symmetry BU   KE= 3.638099520780D+01
 Unable to Open any file for archive entry.
 1\1\GINC-ARC-C135\FOpt\RB3LYP\SDD\C2H4\ORIE4521\07-Oct-2022\0\\# p opt
  Freq b3lyp/sdd geom=connectivity\\Title\\0,1\C,-3.9123960831,0.283023
 4506,0.\H,-3.396841692,-0.675728327,0.\H,-5.0004511231,0.2496003195,0.
 \C,-3.2384166457,1.4509600494,0.\H,-3.7539710367,2.409711827,0.\H,-2.1
 503616057,1.4843831805,0.\\Version=ES64L-G16RevC.01\State=1-AG\HF=-78.
 5782646\RMSD=9.210e-09\RMSF=3.906e-05\Dipole=0.,0.,0.\Quadrupole=0.935
 952,0.9811232,-1.9170752,0.039271,0.,0.\PG=C02H [SGH(C2H4)]\\@
 The archive entry for this job was punched.


 Luck is a matter of preparation meeting opportunity.
                                    -- Oprah Winfrey
 Job cpu time:       0 days  0 hours  5 minutes 37.0 seconds.
 Elapsed time:       0 days  0 hours  5 minutes 39.7 seconds.
 File lengths (MBytes):  RWF=      5 Int=      0 D2E=      0 Chk=      1 Scr=      1
 Normal termination of Gaussian 16 at Fri Oct  7 13:36:44 2022.
 Link1:  Proceeding to internal job step number  2.
 ---------------------------------------------------------------
 #N Geom=AllCheck Guess=TCheck SCRF=Check GenChk RB3LYP/SDD Freq
 ---------------------------------------------------------------
 1/10=4,29=7,30=1,38=1,40=1/1,3;
 2/12=2,40=1/2;
 3/5=17,6=7,11=2,14=-4,25=1,30=1,70=2,71=2,74=-5,116=1,140=1/1,2,3;
 4/5=101/1;
 5/5=2,38=6,98=1/2;
 8/6=4,10=90,11=11/1;
 11/6=1,8=1,9=11,15=111,16=1/1,2,10;
 10/6=1/2;
 6/7=2,8=2,9=2,10=2,28=1/1;
 7/8=1,10=1,25=1/1,2,3,16;
 1/10=4,30=1/3;
 99//99;
 Structure from the checkpoint file:  "/home/orie4521/For_James_M/Gau-870568.chk"
 -----
 Title
 -----
 Charge =  0 Multiplicity = 1
 Redundant internal coordinates found in file.  (old form).
 C,0,-3.9123960831,0.2830234506,0.
 H,0,-3.396841692,-0.675728327,0.
 H,0,-5.0004511231,0.2496003195,0.
 C,0,-3.2384166457,1.4509600494,0.
 H,0,-3.7539710367,2.409711827,0.
 H,0,-2.1503616057,1.4843831805,0.
 Recover connectivity data from disk.

 GradGradGradGradGradGradGradGradGradGradGradGradGradGradGradGradGradGrad
 Berny optimization.
 Initialization pass.
                           ----------------------------
                           !    Initial Parameters    !
                           ! (Angstroms and Degrees)  !
 --------------------------                            --------------------------
 ! Name  Definition              Value          Derivative Info.                !
 --------------------------------------------------------------------------------
 ! R1    R(1,2)                  1.0886         calculate D2E/DX2 analytically  !
 ! R2    R(1,3)                  1.0886         calculate D2E/DX2 analytically  !
 ! R3    R(1,4)                  1.3485         calculate D2E/DX2 analytically  !
 ! R4    R(4,5)                  1.0886         calculate D2E/DX2 analytically  !
 ! R5    R(4,6)                  1.0886         calculate D2E/DX2 analytically  !
 ! A1    A(2,1,3)              116.509          calculate D2E/DX2 analytically  !
 ! A2    A(2,1,4)              121.7436         calculate D2E/DX2 analytically  !
 ! A3    A(3,1,4)              121.7474         calculate D2E/DX2 analytically  !
 ! A4    A(1,4,5)              121.7436         calculate D2E/DX2 analytically  !
 ! A5    A(1,4,6)              121.7474         calculate D2E/DX2 analytically  !
 ! A6    A(5,4,6)              116.509          calculate D2E/DX2 analytically  !
 ! D1    D(2,1,4,5)            180.0            calculate D2E/DX2 analytically  !
 ! D2    D(2,1,4,6)              0.0            calculate D2E/DX2 analytically  !
 ! D3    D(3,1,4,5)              0.0            calculate D2E/DX2 analytically  !
 ! D4    D(3,1,4,6)            180.0            calculate D2E/DX2 analytically  !
 --------------------------------------------------------------------------------
 Trust Radius=3.00D-01 FncErr=1.00D-07 GrdErr=1.00D-07 EigMax=2.50D+02 EigMin=1.00D-04
 Number of steps in this run=      2 maximum allowed number of steps=      2.
 GradGradGradGradGradGradGradGradGradGradGradGradGradGradGradGradGradGrad

                          Input orientation:                          
 ---------------------------------------------------------------------
 Center     Atomic      Atomic             Coordinates (Angstroms)
 Number     Number       Type             X           Y           Z
 ---------------------------------------------------------------------
      1          6           0       -3.912396    0.283023   -0.000000
      2          1           0       -3.396842   -0.675728   -0.000000
      3          1           0       -5.000451    0.249600   -0.000000
      4          6           0       -3.238417    1.450960    0.000000
      5          1           0       -3.753971    2.409712    0.000000
      6          1           0       -2.150362    1.484383    0.000000
 ---------------------------------------------------------------------
                    Distance matrix (angstroms):
                    1          2          3          4          5
     1  C    0.000000
     2  H    1.088578   0.000000
     3  H    1.088568   1.851431   0.000000
     4  C    1.348453   2.132581   2.132611   0.000000
     5  H    2.132581   3.106040   2.493952   1.088578   0.000000
     6  H    2.132611   2.493952   3.106075   1.088568   1.851431
                    6
     6  H    0.000000
 Stoichiometry    C2H4
 Framework group  C2H[SGH(C2H4)]
 Deg. of freedom     5
 Full point group                 C2H     NOp   4
 Largest Abelian subgroup         C2H     NOp   4
 Largest concise Abelian subgroup C2      NOp   2
                         Standard orientation:                         
 ---------------------------------------------------------------------
 Center     Atomic      Atomic             Coordinates (Angstroms)
 Number     Number       Type             X           Y           Z
 ---------------------------------------------------------------------
      1          6           0        0.000000   -0.674226   -0.000000
      2          1           0       -0.925738   -1.246948    0.000000
      3          1           0        0.925693   -1.247003   -0.000000
      4          6           0       -0.000000    0.674226   -0.000000
      5          1           0        0.925738    1.246948    0.000000
      6          1           0       -0.925693    1.247003   -0.000000
 ---------------------------------------------------------------------
 Rotational constants (GHZ):         146.2908117          29.4194296          24.4936903
 Standard basis: SDD (6D, 10F)
 There are    12 symmetry adapted cartesian basis functions of AG  symmetry.
 There are     2 symmetry adapted cartesian basis functions of BG  symmetry.
 There are     2 symmetry adapted cartesian basis functions of AU  symmetry.
 There are    12 symmetry adapted cartesian basis functions of BU  symmetry.
 There are    12 symmetry adapted basis functions of AG  symmetry.
 There are     2 symmetry adapted basis functions of BG  symmetry.
 There are     2 symmetry adapted basis functions of AU  symmetry.
 There are    12 symmetry adapted basis functions of BU  symmetry.
    28 basis functions,    64 primitive gaussians,    28 cartesian basis functions
     8 alpha electrons        8 beta electrons
       nuclear repulsion energy        33.0865194915 Hartrees.
 NAtoms=    6 NActive=    6 NUniq=    3 SFac= 4.00D+00 NAtFMM=   60 NAOKFM=F Big=F
 Integral buffers will be    131072 words long.
 Raffenetti 2 integral format.
 Two-electron integral symmetry is turned on.
 One-electron integrals computed using PRISM.
   4 Symmetry operations used in ECPInt.
 ECPInt:  NShTT=     210 NPrTT=    1044 LenC2=     211 LenP2D=     949.
 LDataN:  DoStor=T MaxTD1= 2 Len=   12
 NBasis=    28 RedAO= T EigKep=  4.55D-03  NBF=    12     2     2    12
 NBsUse=    28 1.00D-06 EigRej= -1.00D+00 NBFU=    12     2     2    12
 Initial guess from the checkpoint file:  "/home/orie4521/For_James_M/Gau-870568.chk"
 B after Tr=    -0.000000    0.000000   -0.000000
         Rot=    1.000000   -0.000000    0.000000    0.000000 Ang=   0.00 deg.
 Initial guess orbital symmetries:
       Occupied  (AG) (BU) (AG) (BU) (BU) (AG) (AG) (AU)
       Virtual   (BG) (BU) (AG) (BU) (BU) (AG) (BU) (AU) (AG) (BG)
                 (AG) (AG) (BU) (BU) (AG) (BU) (BU) (AG) (AG) (BU)
 Keep R1 ints in memory in symmetry-blocked form, NReq=13902949.
 Requested convergence on RMS density matrix=1.00D-08 within 128 cycles.
 Requested convergence on MAX density matrix=1.00D-06.
 Requested convergence on             energy=1.00D-06.
 No special actions if energy rises.
 SCF Done:  E(RB3LYP) =  -78.5782645571     A.U. after    1 cycles
            NFock=  1  Conv=0.82D-09     -V/T= 2.0070
 DoSCS=F DFT=T ScalE2(SS,OS)=  1.000000  1.000000
 Range of M.O.s used for correlation:     1    28
 NBasis=    28 NAE=     8 NBE=     8 NFC=     0 NFV=     0
 NROrb=     28 NOA=     8 NOB=     8 NVA=    20 NVB=    20
   4 Symmetry operations used in ECPInt.
 ECPInt:  NShTT=     210 NPrTT=    1044 LenC2=     211 LenP2D=     949.
 LDataN:  DoStor=T MaxTD1= 3 Len=   28
 Symmetrizing basis deriv contribution to polar:
 IMax=3 JMax=2 DiffMx= 0.00D+00
 G2DrvN: will do     7 centers at a time, making    1 passes.
 Calling FoFCou, ICntrl=  3107 FMM=F I1Cent=   0 AccDes= 0.00D+00.
 End of G2Drv F.D. properties file   721 does not exist.
 End of G2Drv F.D. properties file   722 does not exist.
 End of G2Drv F.D. properties file   788 does not exist.
          IDoAtm=111111
          Differentiating once with respect to electric field.
                with respect to dipole field.
          Differentiating once with respect to nuclear coordinates.
 Keep R1 ints in memory in symmetry-blocked form, NReq=13852324.
          There are    12 degrees of freedom in the 1st order CPHF.  IDoFFX=4 NUNeed=    12.
     12 vectors produced by pass  0 Test12= 1.33D-15 8.33D-09 XBig12= 3.50D+01 5.23D+00.
 AX will form    12 AO Fock derivatives at one time.
     12 vectors produced by pass  1 Test12= 1.33D-15 8.33D-09 XBig12= 6.92D+00 1.05D+00.
     12 vectors produced by pass  2 Test12= 1.33D-15 8.33D-09 XBig12= 1.20D-01 1.45D-01.
     12 vectors produced by pass  3 Test12= 1.33D-15 8.33D-09 XBig12= 2.11D-04 7.55D-03.
     12 vectors produced by pass  4 Test12= 1.33D-15 8.33D-09 XBig12= 2.32D-07 1.77D-04.
      5 vectors produced by pass  5 Test12= 1.33D-15 8.33D-09 XBig12= 1.45D-10 5.54D-06.
      1 vectors produced by pass  6 Test12= 1.33D-15 8.33D-09 XBig12= 2.07D-13 1.19D-07.
 InvSVY:  IOpt=1 It=  1 EMax= 2.66D-15
 Solved reduced A of dimension    66 with    12 vectors.
 Isotropic polarizability for W=    0.000000       19.48 Bohr**3.
 End of Minotr F.D. properties file   721 does not exist.
 End of Minotr F.D. properties file   722 does not exist.
 End of Minotr F.D. properties file   788 does not exist.

 **********************************************************************

            Population analysis using the SCF Density.

 **********************************************************************

 Orbital symmetries:
       Occupied  (AG) (BU) (AG) (BU) (BU) (AG) (AG) (AU)
       Virtual   (BG) (BU) (AG) (BU) (BU) (AG) (BU) (AU) (AG) (BG)
                 (AG) (AG) (BU) (BU) (AG) (BU) (BU) (AG) (AG) (BU)
 The electronic state is 1-AG.
 Alpha  occ. eigenvalues --  -10.19272 -10.19197  -0.76060  -0.58210  -0.46933
 Alpha  occ. eigenvalues --   -0.42160  -0.35768  -0.27264
 Alpha virt. eigenvalues --   -0.00075   0.13392   0.14883   0.19817   0.25566
 Alpha virt. eigenvalues --    0.26168   0.29258   0.31662   0.31711   0.40196
 Alpha virt. eigenvalues --    0.51514   0.55230   0.61053   0.89363   1.02235
 Alpha virt. eigenvalues --    1.12110   1.18117   1.38147  22.60913  22.90240
          Condensed to atoms (all electrons):
               1          2          3          4          5          6
     1  C    5.090413   0.391923   0.391922   0.600114  -0.034678  -0.034674
     2  H    0.391923   0.461270  -0.019834  -0.034678   0.001915  -0.003100
     3  H    0.391922  -0.019834   0.461255  -0.034674  -0.003100   0.001914
     4  C    0.600114  -0.034678  -0.034674   5.090413   0.391923   0.391922
     5  H   -0.034678   0.001915  -0.003100   0.391923   0.461270  -0.019834
     6  H   -0.034674  -0.003100   0.001914   0.391922  -0.019834   0.461255
 Mulliken charges:
               1
     1  C   -0.405021
     2  H    0.202504
     3  H    0.202517
     4  C   -0.405021
     5  H    0.202504
     6  H    0.202517
 Sum of Mulliken charges =   0.00000
 Mulliken charges with hydrogens summed into heavy atoms:
               1
     1  C    0.000000
     4  C    0.000000
 APT charges:
               1
     1  C   -0.090352
     2  H    0.045170
     3  H    0.045182
     4  C   -0.090352
     5  H    0.045170
     6  H    0.045182
 Sum of APT charges =  -0.00000
 APT charges with hydrogens summed into heavy atoms:
               1
     1  C    0.000000
     4  C   -0.000000
 Electronic spatial extent (au):  <R**2>=             83.2116
 Charge=              0.0000 electrons
 Dipole moment (field-independent basis, Debye):
    X=             -0.0000    Y=             -0.0000    Z=              0.0000  Tot=              0.0000
 Quadrupole moment (field-independent basis, Debye-Ang):
   XX=            -11.8989   YY=            -11.7771   ZZ=            -15.7058
   XY=             -0.0001   XZ=             -0.0000   YZ=              0.0000
 Traceless Quadrupole moment (field-independent basis, Debye-Ang):
   XX=              1.2283   YY=              1.3502   ZZ=             -2.5785
   XY=             -0.0001   XZ=             -0.0000   YZ=              0.0000
 Octapole moment (field-independent basis, Debye-Ang**2):
  XXX=             -0.0000  YYY=              0.0000  ZZZ=              0.0000  XYY=             -0.0000
  XXY=              0.0000  XXZ=              0.0000  XZZ=             -0.0000  YZZ=             -0.0000
  YYZ=              0.0000  XYZ=              0.0000
 Hexadecapole moment (field-independent basis, Debye-Ang**3):
 XXXX=            -25.0023 YYYY=            -65.9983 ZZZZ=            -18.4358 XXXY=             -0.0001
 XXXZ=              0.0000 YYYX=             -0.0008 YYYZ=              0.0000 ZZZX=              0.0000
 ZZZY=              0.0000 XXYY=            -12.1271 XXZZ=             -7.9274 YYZZ=            -15.3754
 XXYZ=              0.0000 YYXZ=             -0.0000 ZZXY=             -0.0001
 N-N= 3.308651949151D+01 E-N=-2.477127140536D+02  KE= 7.802917470253D+01
 Symmetry AG   KE= 3.959482749444D+01
 Symmetry BG   KE=-9.335234979189D-34
 Symmetry AU   KE= 2.053352040142D+00
 Symmetry BU   KE= 3.638099516795D+01
  Exact polarizability:      17.991       0.000      31.609       0.000       0.000       8.838
 Approx polarizability:      21.847       0.000      48.502      -0.000      -0.000      10.128
   4 Symmetry operations used in ECPInt.
 ECPInt:  NShTT=     210 NPrTT=    1044 LenC2=     211 LenP2D=     949.
 LDataN:  DoStor=T MaxTD1= 4 Len=   56
 Calling FoFJK, ICntrl=    100127 FMM=F ISym2X=1 I1Cent= 0 IOpClX= 0 NMat=1 NMatS=1 NMatT=0.
 Full mass-weighted force constant matrix:
 Low frequencies ---   -0.0009    0.0005    0.0006    7.3604   15.4393   30.2344
 Low frequencies ---  841.8595  999.7746 1009.8635
 Diagonal vibrational polarizability:
        0.3404285       0.2682174       4.5938839
 Harmonic frequencies (cm**-1), IR intensities (KM/Mole), Raman scattering
 activities (A**4/AMU), depolarization ratios for plane and unpolarized
 incident light, reduced masses (AMU), force constants (mDyne/A),
 and normal coordinates:
                      1                      2                      3
                     BU                     AU                     BG
 Frequencies --    841.8595               999.7746              1009.8635
 Red. masses --      1.0434                 1.1607                 1.5138
 Frc consts  --      0.4357                 0.6836                 0.9096
 IR Inten    --      5.3244               170.6283                 0.0000
  Atom  AN      X      Y      Z        X      Y      Z        X      Y      Z
     1   6    -0.04  -0.00  -0.00     0.00   0.00  -0.08    -0.00   0.00   0.15
     2   1     0.24  -0.44   0.00     0.00   0.00   0.50    -0.00  -0.00  -0.49
     3   1     0.24   0.44   0.00    -0.00   0.00   0.50     0.00  -0.00  -0.49
     4   6    -0.04  -0.00   0.00    -0.00  -0.00  -0.08    -0.00   0.00  -0.15
     5   1     0.24  -0.44  -0.00    -0.00  -0.00   0.50    -0.00  -0.00   0.49
     6   1     0.24   0.44  -0.00     0.00  -0.00   0.50     0.00  -0.00   0.49
                      4                      5                      6
                     AU                     AG                     AG
 Frequencies --   1055.0616              1245.6909              1386.7684
 Red. masses --      1.0078                 1.5192                 1.2505
 Frc consts  --      0.6610                 1.3890                 1.4169
 IR Inten    --      0.0000                 0.0000                 0.0000
  Atom  AN      X      Y      Z        X      Y      Z        X      Y      Z
     1   6     0.00   0.00  -0.00     0.15  -0.00   0.00     0.00   0.11   0.00
     2   1     0.00   0.00   0.50    -0.14   0.47  -0.00    -0.19   0.46  -0.00
     3   1     0.00  -0.00  -0.50    -0.14  -0.47   0.00     0.19   0.46  -0.00
     4   6    -0.00  -0.00  -0.00    -0.15   0.00   0.00    -0.00  -0.11   0.00
     5   1    -0.00  -0.00   0.50     0.14  -0.47  -0.00     0.19  -0.46  -0.00
     6   1    -0.00   0.00  -0.50     0.14   0.47   0.00    -0.19  -0.46  -0.00
                      7                      8                      9
                     BU                     AG                     BU
 Frequencies --   1486.5800              1676.4584              3142.0601
 Red. masses --      1.1122                 2.9365                 1.0476
 Frc consts  --      1.4481                 4.8626                 6.0933
 IR Inten    --     17.8953                 0.0000                18.4524
  Atom  AN      X      Y      Z        X      Y      Z        X      Y      Z
     1   6    -0.00  -0.07  -0.00    -0.00   0.30   0.00    -0.00  -0.04   0.00
     2   1    -0.28   0.41   0.00     0.38  -0.25  -0.00     0.43   0.25  -0.00
     3   1     0.28   0.41   0.00    -0.38  -0.25  -0.00    -0.43   0.25  -0.00
     4   6    -0.00  -0.07   0.00     0.00  -0.30   0.00    -0.00  -0.04  -0.00
     5   1    -0.28   0.41  -0.00    -0.38   0.25  -0.00     0.43   0.25   0.00
     6   1     0.28   0.41  -0.00     0.38   0.25  -0.00    -0.43   0.25   0.00
                     10                     11                     12
                     AG                     AG                     BU
 Frequencies --   3168.1002              3236.7585              3274.7880
 Red. masses --      1.0781                 1.1137                 1.1169
 Frc consts  --      6.3753                 6.8742                 7.0571
 IR Inten    --      0.0000                 0.0000                55.0952
  Atom  AN      X      Y      Z        X      Y      Z        X      Y      Z
     1   6    -0.00  -0.06   0.00    -0.07   0.00   0.00    -0.07   0.00  -0.00
     2   1     0.43   0.25  -0.00     0.42   0.27  -0.00     0.42   0.27  -0.00
     3   1    -0.43   0.25  -0.00     0.42  -0.27   0.00     0.42  -0.27   0.00
     4   6     0.00   0.06   0.00     0.07  -0.00   0.00    -0.07   0.00  -0.00
     5   1    -0.43  -0.25  -0.00    -0.42  -0.27  -0.00     0.42   0.27   0.00
     6   1     0.43  -0.25  -0.00    -0.42   0.27   0.00     0.42  -0.27   0.00

 -------------------
 - Thermochemistry -
 -------------------
 Temperature   298.150 Kelvin.  Pressure   1.00000 Atm.
 Atom     1 has atomic number  6 and mass  12.00000
 Atom     2 has atomic number  1 and mass   1.00783
 Atom     3 has atomic number  1 and mass   1.00783
 Atom     4 has atomic number  6 and mass  12.00000
 Atom     5 has atomic number  1 and mass   1.00783
 Atom     6 has atomic number  1 and mass   1.00783
 Molecular mass:    28.03130 amu.
 Principal axes and moments of inertia in atomic units:
                           1         2         3
     Eigenvalues --    12.33667  61.34521  73.68188
           X            0.00000   1.00000   0.00000
           Y            1.00000  -0.00000   0.00000
           Z           -0.00000  -0.00000   1.00000
 This molecule is an asymmetric top.
 Rotational symmetry number  2.
 Rotational temperatures (Kelvin)      7.02085     1.41191     1.17551
 Rotational constants (GHZ):         146.29081    29.41943    24.49369
 Zero-point vibrational energy     134722.0 (Joules/Mol)
                                   32.19934 (Kcal/Mol)
 Vibrational temperatures:   1211.25  1438.45  1452.97  1518.00  1792.27
          (Kelvin)           1995.25  2138.86  2412.05  4520.72  4558.19
                             4656.97  4711.69
 
 Zero-point correction=                           0.051313 (Hartree/Particle)
 Thermal correction to Energy=                    0.054344
 Thermal correction to Enthalpy=                  0.055288
 Thermal correction to Gibbs Free Energy=         0.029766
 Sum of electronic and zero-point Energies=            -78.526952
 Sum of electronic and thermal Energies=               -78.523921
 Sum of electronic and thermal Enthalpies=             -78.522976
 Sum of electronic and thermal Free Energies=          -78.548499
 
                     E (Thermal)             CV                S
                      KCal/Mol        Cal/Mol-Kelvin    Cal/Mol-Kelvin
 Total                   34.101              8.017             53.717
 Electronic               0.000              0.000              0.000
 Translational            0.889              2.981             35.927
 Rotational               0.889              2.981             17.284
 Vibrational             32.324              2.055              0.505
                       Q            Log10(Q)             Ln(Q)
 Total Bot       0.203586D-13        -13.691252        -31.525273
 Total V=0       0.814755D+10          9.911027         22.820983
 Vib (Bot)       0.261122D-23        -23.583156        -54.302223
 Vib (V=0)       0.104502D+01          0.019123          0.044033
 Electronic      0.100000D+01          0.000000          0.000000
 Translational   0.583336D+07          6.765919         15.579104
 Rotational      0.133655D+04          3.125985          7.197847
 ***** Axes restored to original set *****
 -------------------------------------------------------------------
 Center     Atomic                   Forces (Hartrees/Bohr)
 Number     Number              X              Y              Z
 -------------------------------------------------------------------
      1        6          -0.000012440   -0.000048785   -0.000000000
      2        1          -0.000043304    0.000064022    0.000000000
      3        1           0.000072239   -0.000001121    0.000000000
      4        6           0.000012440    0.000048785    0.000000000
      5        1           0.000043304   -0.000064022   -0.000000000
      6        1          -0.000072239    0.000001121   -0.000000000
 -------------------------------------------------------------------
 Cartesian Forces:  Max     0.000072239 RMS     0.000039056
 FormGI is forming the generalized inverse of G from B-inverse, IUseBI=4.

 GradGradGradGradGradGradGradGradGradGradGradGradGradGradGradGradGradGrad
 Berny optimization.
 Internal  Forces:  Max     0.000076895 RMS     0.000039092
 Search for a local minimum.
 Step number   1 out of a maximum of    2
 All quantities printed in internal units (Hartrees-Bohrs-Radians)
 Second derivative matrix not updated -- analytic derivatives used.
 The second derivative matrix:
                          R1        R2        R3        R4        R5
           R1           0.36227
           R2          -0.00065   0.36229
           R3           0.00176   0.00176   0.62459
           R4          -0.00090   0.00159   0.00176   0.36227
           R5           0.00159  -0.00090   0.00176  -0.00065   0.36229
           A1           0.00750   0.00750  -0.02366  -0.00050  -0.00050
           A2           0.00604  -0.01354   0.01183   0.00326  -0.00276
           A3          -0.01354   0.00604   0.01183  -0.00276   0.00326
           A4           0.00326  -0.00276   0.01183   0.00604  -0.01354
           A5          -0.00276   0.00326   0.01183  -0.01354   0.00604
           A6          -0.00050  -0.00050  -0.02366   0.00750   0.00750
           D1          -0.00000  -0.00000  -0.00000  -0.00000  -0.00000
           D2          -0.00000   0.00000  -0.00000  -0.00000   0.00000
           D3          -0.00000   0.00000  -0.00000  -0.00000   0.00000
           D4           0.00000   0.00000   0.00000   0.00000   0.00000
                          A1        A2        A3        A4        A5
           A1           0.07381
           A2          -0.03690   0.08308
           A3          -0.03690  -0.04618   0.08308
           A4          -0.00135   0.01032  -0.00897   0.08308
           A5          -0.00135  -0.00897   0.01032  -0.04618   0.08308
           A6           0.00269  -0.00135  -0.00135  -0.03690  -0.03690
           D1          -0.00000  -0.00000   0.00000  -0.00000   0.00000
           D2          -0.00000  -0.00000   0.00000  -0.00000   0.00000
           D3           0.00000  -0.00000   0.00000  -0.00000   0.00000
           D4           0.00000  -0.00000   0.00000  -0.00000   0.00000
                          A6        D1        D2        D3        D4
           A6           0.07381
           D1          -0.00000   0.03306
           D2           0.00000   0.00811   0.02699
           D3          -0.00000   0.00811  -0.01077   0.02699
           D4           0.00000  -0.01683   0.00811   0.00811   0.03306
 ITU=  0
     Eigenvalues ---    0.03245   0.03776   0.04989   0.10592   0.10925
     Eigenvalues ---    0.11087   0.14550   0.36169   0.36291   0.36348
     Eigenvalues ---    0.36614   0.62789
 Angle between quadratic step and forces=   8.99 degrees.
 Linear search not attempted -- first point.
 Iteration  1 RMS(Cart)=  0.00011275 RMS(Int)=  0.00000000
 Iteration  2 RMS(Cart)=  0.00000000 RMS(Int)=  0.00000000
 ClnCor:  largest displacement from symmetrization is 7.16D-15 for atom     6.
 Variable       Old X    -DE/DX   Delta X   Delta X   Delta X     New X
                                 (Linear)    (Quad)   (Total)
    R1        2.05711  -0.00008   0.00000  -0.00021  -0.00021   2.05690
    R2        2.05710  -0.00007   0.00000  -0.00020  -0.00020   2.05690
    R3        2.54821  -0.00002   0.00000  -0.00004  -0.00004   2.54817
    R4        2.05711  -0.00008   0.00000  -0.00021  -0.00021   2.05690
    R5        2.05710  -0.00007   0.00000  -0.00020  -0.00020   2.05690
    A1        2.03347  -0.00001   0.00000  -0.00005  -0.00005   2.03342
    A2        2.12483   0.00001   0.00000   0.00006   0.00006   2.12488
    A3        2.12489  -0.00000   0.00000  -0.00001  -0.00001   2.12488
    A4        2.12483   0.00001   0.00000   0.00006   0.00006   2.12488
    A5        2.12489  -0.00000   0.00000  -0.00001  -0.00001   2.12488
    A6        2.03347  -0.00001   0.00000  -0.00005  -0.00005   2.03342
    D1        3.14159  -0.00000   0.00000  -0.00000   0.00000   3.14159
    D2        0.00000  -0.00000   0.00000  -0.00000   0.00000   0.00000
    D3       -0.00000   0.00000   0.00000  -0.00000   0.00000   0.00000
    D4        3.14159   0.00000   0.00000   0.00000   0.00000   3.14159
         Item               Value     Threshold  Converged?
 Maximum Force            0.000077     0.000450     YES
 RMS     Force            0.000039     0.000300     YES
 Maximum Displacement     0.000227     0.001800     YES
 RMS     Displacement     0.000113     0.001200     YES
 Predicted change in Energy=-3.170143D-08
 Optimization completed.
    -- Stationary point found.
                           ----------------------------
                           !   Optimized Parameters   !
                           ! (Angstroms and Degrees)  !
 --------------------------                            --------------------------
 ! Name  Definition              Value          Derivative Info.                !
 --------------------------------------------------------------------------------
 ! R1    R(1,2)                  1.0886         -DE/DX =   -0.0001              !
 ! R2    R(1,3)                  1.0886         -DE/DX =   -0.0001              !
 ! R3    R(1,4)                  1.3485         -DE/DX =    0.0                 !
 ! R4    R(4,5)                  1.0886         -DE/DX =   -0.0001              !
 ! R5    R(4,6)                  1.0886         -DE/DX =   -0.0001              !
 ! A1    A(2,1,3)              116.509          -DE/DX =    0.0                 !
 ! A2    A(2,1,4)              121.7436         -DE/DX =    0.0                 !
 ! A3    A(3,1,4)              121.7474         -DE/DX =    0.0                 !
 ! A4    A(1,4,5)              121.7436         -DE/DX =    0.0                 !
 ! A5    A(1,4,6)              121.7474         -DE/DX =    0.0                 !
 ! A6    A(5,4,6)              116.509          -DE/DX =    0.0                 !
 ! D1    D(2,1,4,5)            180.0            -DE/DX =    0.0                 !
 ! D2    D(2,1,4,6)              0.0            -DE/DX =    0.0                 !
 ! D3    D(3,1,4,5)              0.0            -DE/DX =    0.0                 !
 ! D4    D(3,1,4,6)            180.0            -DE/DX =    0.0                 !
 --------------------------------------------------------------------------------
 GradGradGradGradGradGradGradGradGradGradGradGradGradGradGradGradGradGrad

 Dipole is zero, so no output in dipole orientation.

 ----------------------------------------------------------------------

 Electric dipole moment (input orientation):
 (Debye = 10**-18 statcoulomb cm , SI units = C m)
                  (au)            (Debye)         (10**-30 SI)
   Tot        0.000000D+00      0.000000D+00      0.000000D+00
   x          0.000000D+00      0.000000D+00      0.000000D+00
   y          0.000000D+00      0.000000D+00      0.000000D+00
   z          0.000000D+00      0.000000D+00      0.000000D+00

 Dipole polarizability, Alpha (input orientation).
 (esu units = cm**3 , SI units = C**2 m**2 J**-1)
 Alpha(0;0):
               (au)            (10**-24 esu)      (10**-40 SI)
   iso        0.194795D+02      0.288656D+01      0.321173D+01
   aniso      0.198458D+02      0.294085D+01      0.327213D+01
   xx         0.213932D+02      0.317014D+01      0.352726D+01
   yx         0.589497D+01      0.873544D+00      0.971949D+00
   yy         0.282071D+02      0.417986D+01      0.465072D+01
   zx         0.000000D+00      0.000000D+00      0.000000D+00
   zy         0.000000D+00      0.000000D+00      0.000000D+00
   zz         0.883822D+01      0.130969D+01      0.145723D+01

 ----------------------------------------------------------------------
 Unable to Open any file for archive entry.
 1\1\GINC-ARC-C135\Freq\RB3LYP\SDD\C2H4\ORIE4521\07-Oct-2022\0\\#N Geom
 =AllCheck Guess=TCheck SCRF=Check GenChk RB3LYP/SDD Freq\\Title\\0,1\C
 ,-3.9123960831,0.2830234506,0.\H,-3.396841692,-0.675728327,0.\H,-5.000
 4511231,0.2496003195,0.\C,-3.2384166457,1.4509600494,0.\H,-3.753971036
 7,2.409711827,0.\H,-2.1503616057,1.4843831805,0.\\Version=ES64L-G16Rev
 C.01\State=1-AG\HF=-78.5782646\RMSD=8.176e-10\RMSF=3.906e-05\ZeroPoint
 =0.0513129\Thermal=0.054344\ETot=-78.5239205\HTot=-78.5229763\GTot=-78
 .5484989\Dipole=0.,0.,0.\DipoleDeriv=0.1070195,-0.0834835,0.,-0.083479
 3,0.0105461,0.,0.,0.,-0.3886212,0.0276084,0.0896949,0.,0.0875681,-0.08
 64078,0.,0.,0.,0.1943084,-0.1346279,-0.0062114,0.,-0.0040888,0.0758618
 ,0.,0.,0.,0.1943128,0.1070195,-0.0834835,0.,-0.0834793,0.0105461,0.,0.
 ,0.,-0.3886212,0.0276084,0.0896949,0.,0.0875681,-0.0864078,0.,0.,0.,0.
 1943084,-0.1346279,-0.0062114,0.,-0.0040888,0.0758618,0.,0.,0.,0.19431
 28\Polar=21.3931806,5.8949657,28.2070763,0.,0.,8.8382245\Quadrupole=0.
 9359519,0.9811232,-1.9170751,0.039271,0.,0.\PG=C02H [SGH(C2H4)]\NImag=
 0\\0.69542326,0.09292664,0.80278897,0.,0.,0.11710621,-0.12498713,0.125
 60265,0.,0.12415996,0.11979430,-0.27528652,0.,-0.12874103,0.29266242,0
 .,0.,-0.03916213,0.,0.,0.02496133,-0.34399096,-0.00677688,0.,-0.009492
 45,-0.00548117,0.,0.36204153,-0.00096932,-0.05630309,0.,0.02567457,0.0
 0217874,0.,0.00874105,0.05479683,0.,0.,-0.03915793,0.,0.,0.00371491,0.
 ,0.,0.02495868,-0.22492444,-0.19799088,0.,0.00975961,0.01828430,0.,-0.
 01128035,-0.03204504,0.,0.69542326,-0.19799088,-0.45376742,0.,-0.01988
 485,-0.01923792,0.,0.00612332,0.00180597,0.,0.09292664,0.80278897,0.,0
 .,-0.05182641,0.,0.,0.00652080,0.,0.,0.00651946,0.,0.,0.11710621,0.009
 75961,-0.01988485,0.,-0.00115286,-0.00293109,0.,0.00171285,0.00027975,
 0.,-0.12498713,0.12560265,0.,0.12415996,0.01828430,-0.01923792,0.,-0.0
 0293109,-0.00165670,0.,-0.00092531,0.00133998,0.,0.11979430,-0.2752865
 2,0.,-0.12874103,0.29266242,0.,0.,0.00652080,0.,0.,0.01258772,0.,0.,-0
 .00862262,0.,0.,-0.03916213,0.,0.,0.02496133,-0.01128035,0.00612332,0.
 ,0.00171285,-0.00092531,0.,0.00100936,-0.00168101,0.,-0.34399096,-0.00
 677688,0.,-0.00949245,-0.00548117,0.,0.36204153,-0.03204504,0.00180597
 ,0.,0.00027975,0.00133998,0.,-0.00168101,-0.00381843,0.,-0.00096932,-0
 .05630309,0.,0.02567457,0.00217874,0.,0.00874105,0.05479683,0.,0.,0.00
 651946,0.,0.,-0.00862262,0.,0.,0.01258751,0.,0.,-0.03915793,0.,0.,0.00
 371491,0.,0.,0.02495868\\0.00001244,0.00004879,0.,0.00004330,-0.000064
 02,0.,-0.00007224,0.00000112,0.,-0.00001244,-0.00004879,0.,-0.00004330
 ,0.00006402,0.,0.00007224,-0.00000112,0.\\\@
 The archive entry for this job was punched.


 SATCHEL PAIGE'S GUIDE TO LONGEVITY

    1.  AVOID FRIED MEATS, WHICH ANGRY UP THE BLOOD.

    2.  IF YOUR STOMACH DISPUTES YOU, LIE DOWN AND PACIFY IT WITH COOL
        THOUGHTS.

    3.  KEEP THE JUICES FLOWING BY JANGLING AROUND GENTLY AS YOU MOVE.

    4.  GO VERY LIGHT ON THE VICES, SUCH AS CARRYING ON IN SOCIETY.
        THE SOCIAL RUMBLE AIN'T RESTFUL.

    5.  AVOID RUNNING AT ALL TIMES.

    6.  DON'T LOOK BACK.  SOMETHING MAY BE GAINING ON YOU.
 Job cpu time:       0 days  0 hours  1 minutes 57.2 seconds.
 Elapsed time:       0 days  0 hours  1 minutes 58.3 seconds.
 File lengths (MBytes):  RWF=      5 Int=      0 D2E=      0 Chk=      1 Scr=      1
 Normal termination of Gaussian 16 at Fri Oct  7 13:38:44 2022.
